
                                 *****************
                                 * O   R   C   A *
                                 *****************

                                            #,                                       
                                            ###                                      
                                            ####                                     
                                            #####                                    
                                            ######                                   
                                           ########,                                 
                                     ,,################,,,,,                         
                               ,,#################################,,                 
                          ,,##########################################,,             
                       ,#########################################, ''#####,          
                    ,#############################################,,   '####,        
                  ,##################################################,,,,####,       
                ,###########''''           ''''###############################       
              ,#####''   ,,,,##########,,,,          '''####'''          '####       
            ,##' ,,,,###########################,,,                        '##       
           ' ,,###''''                  '''############,,,                           
         ,,##''                                '''############,,,,        ,,,,,,###''
      ,#''                                            '''#######################'''  
     '                                                          ''''####''''         
             ,#######,   #######,   ,#######,      ##                                
            ,#'     '#,  ##    ##  ,#'     '#,    #''#        ######   ,####,        
            ##       ##  ##   ,#'  ##            #'  '#       #        #'  '#        
            ##       ##  #######   ##           ,######,      #####,   #    #        
            '#,     ,#'  ##    ##  '#,     ,#' ,#      #,         ##   #,  ,#        
             '#######'   ##     ##  '#######'  #'      '#     #####' # '####'        



                  #######################################################
                  #                        -***-                        #
                  #          Department of theory and spectroscopy      #
                  #    Directorship and core code : Frank Neese         #
                  #        Max Planck Institute fuer Kohlenforschung    #
                  #                Kaiser Wilhelm Platz 1               #
                  #                 D-45470 Muelheim/Ruhr               #
                  #                      Germany                        #
                  #                                                     #
                  #                  All rights reserved                #
                  #                        -***-                        #
                  #######################################################


                         Program Version 5.0.4 -  RELEASE  -


 With contributions from (in alphabetic order):
   Daniel Aravena         : Magnetic Suceptibility
   Michael Atanasov       : Ab Initio Ligand Field Theory (pilot matlab implementation)
   Alexander A. Auer      : GIAO ZORA, VPT2 properties, NMR spectrum
   Ute Becker             : Parallelization
   Giovanni Bistoni       : ED, misc. LED, open-shell LED, HFLD
   Martin Brehm           : Molecular dynamics
   Dmytro Bykov           : SCF Hessian
   Vijay G. Chilkuri      : MRCI spin determinant printing, contributions to CSF-ICE
   Dipayan Datta          : RHF DLPNO-CCSD density
   Achintya Kumar Dutta   : EOM-CC, STEOM-CC
   Dmitry Ganyushin       : Spin-Orbit,Spin-Spin,Magnetic field MRCI
   Miquel Garcia          : C-PCM and meta-GGA Hessian, CC/C-PCM, Gaussian charge scheme
   Yang Guo               : DLPNO-NEVPT2, F12-NEVPT2, CIM, IAO-localization
   Andreas Hansen         : Spin unrestricted coupled pair/coupled cluster methods
   Benjamin Helmich-Paris : MC-RPA, TRAH-SCF, COSX integrals
   Lee Huntington         : MR-EOM, pCC
   Robert Izsak           : Overlap fitted RIJCOSX, COSX-SCS-MP3, EOM
   Marcus Kettner         : VPT2
   Christian Kollmar      : KDIIS, OOCD, Brueckner-CCSD(T), CCSD density, CASPT2, CASPT2-K
   Simone Kossmann        : Meta GGA functionals, TD-DFT gradient, OOMP2, MP2 Hessian
   Martin Krupicka        : Initial AUTO-CI
   Lucas Lang             : DCDCAS
   Marvin Lechner         : AUTO-CI (C++ implementation), FIC-MRCC
   Dagmar Lenk            : GEPOL surface, SMD
   Dimitrios Liakos       : Extrapolation schemes; Compound Job, initial MDCI parallelization
   Dimitrios Manganas     : Further ROCIS development; embedding schemes
   Dimitrios Pantazis     : SARC Basis sets
   Anastasios Papadopoulos: AUTO-CI, single reference methods and gradients
   Taras Petrenko         : DFT Hessian,TD-DFT gradient, ASA, ECA, R-Raman, ABS, FL, XAS/XES, NRVS
   Peter Pinski           : DLPNO-MP2, DLPNO-MP2 Gradient
   Christoph Reimann      : Effective Core Potentials
   Marius Retegan         : Local ZFS, SOC
   Christoph Riplinger    : Optimizer, TS searches, QM/MM, DLPNO-CCSD(T), (RO)-DLPNO pert. Triples
   Tobias Risthaus        : Range-separated hybrids, TD-DFT gradient, RPA, STAB
   Michael Roemelt        : Original ROCIS implementation
   Masaaki Saitow         : Open-shell DLPNO-CCSD energy and density
   Barbara Sandhoefer     : DKH picture change effects
   Avijit Sen             : IP-ROCIS
   Kantharuban Sivalingam : CASSCF convergence, NEVPT2, FIC-MRCI
   Bernardo de Souza      : ESD, SOC TD-DFT
   Georgi Stoychev        : AutoAux, RI-MP2 NMR, DLPNO-MP2 response
   Willem Van den Heuvel  : Paramagnetic NMR
   Boris Wezisla          : Elementary symmetry handling
   Frank Wennmohs         : Technical directorship


 We gratefully acknowledge several colleagues who have allowed us to
 interface, adapt or use parts of their codes:
   Stefan Grimme, W. Hujo, H. Kruse, P. Pracht,  : VdW corrections, initial TS optimization,
                  C. Bannwarth, S. Ehlert          DFT functionals, gCP, sTDA/sTD-DF
   Ed Valeev, F. Pavosevic, A. Kumar             : LibInt (2-el integral package), F12 methods
   Garnet Chan, S. Sharma, J. Yang, R. Olivares  : DMRG
   Ulf Ekstrom                                   : XCFun DFT Library
   Mihaly Kallay                                 : mrcc  (arbitrary order and MRCC methods)
   Jiri Pittner, Ondrej Demel                    : Mk-CCSD
   Frank Weinhold                                : gennbo (NPA and NBO analysis)
   Christopher J. Cramer and Donald G. Truhlar   : smd solvation model
   Lars Goerigk                                  : TD-DFT with DH, B97 family of functionals
   V. Asgeirsson, H. Jonsson                     : NEB implementation
   FAccTs GmbH                                   : IRC, NEB, NEB-TS, DLPNO-Multilevel, CI-OPT
                                                   MM, QMMM, 2- and 3-layer-ONIOM, Crystal-QMMM,
                                                   LR-CPCM, SF, NACMEs, symmetry and pop. for TD-DFT,
                                                   nearIR, NL-DFT gradient (VV10), updates on ESD,
                                                   ML-optimized integration grids
   S Lehtola, MJT Oliveira, MAL Marques          : LibXC Library
   Liviu Ungur et al                             : ANISO software


 Your calculation uses the libint2 library for the computation of 2-el integrals
 For citations please refer to: http://libint.valeyev.net

 Your ORCA version has been built with support for libXC version: 5.1.0
 For citations please refer to: https://tddft.org/programs/libxc/

 This ORCA versions uses:
   CBLAS   interface :  Fast vector & matrix operations
   LAPACKE interface :  Fast linear algebra routines
   SCALAPACK package :  Parallel linear algebra routines
   Shared memory     :  Shared parallel matrices
   BLAS/LAPACK       :  OpenBLAS 0.3.15  USE64BITINT DYNAMIC_ARCH NO_AFFINITY Zen SINGLE_THREADED
        Core in use  :  Zen
   Copyright (c) 2011-2014, The OpenBLAS Project




***************************************
The coordinates will be read from file: geo.xyz
***************************************


================================================================================

----- Orbital basis set information -----
Your calculation utilizes the basis: DKH-def2-TZVPP
   Exponents from def2-TZVPP [F. Weigend and R. Ahlrichs, Phys. Chem. Chem. Phys. 7, 3297 (2005)],
   recontracted for DKH2 by D. A. Pantazis.

----- AuxJ basis set information -----
Your calculation utilizes the AutoAux generation procedure.
  G. L. Stoychev, A. A. Auer, F. Neese, J. Chem. Theory Comput. 13, 554 (2017)

----- AuxC basis set information -----
Your calculation utilizes the AutoAux generation procedure.
  G. L. Stoychev, A. A. Auer, F. Neese, J. Chem. Theory Comput. 13, 554 (2017)

----- AuxJK basis set information -----
Your calculation utilizes the AutoAux generation procedure.
  G. L. Stoychev, A. A. Auer, F. Neese, J. Chem. Theory Comput. 13, 554 (2017)

================================================================================
                                        WARNINGS
                       Please study these warnings very carefully!
================================================================================


INFO   : the flag for use of the SHARK integral package has been found!

================================================================================
                                       INPUT FILE
================================================================================
NAME = rho.inp
|  1> !CASSCF  DKH DKH-def2-TZVPP  RIJCOSX NoSFitting VeryTightSCF autoaux moread SlowConv
|  2> %moinp "orb.gbw"
|  3> %pal
|  4> nprocs 10
|  5> end
|  6> %maxcore 4000
|  7> # swap
|  8> %scf
|  9>  Rotate
| 10>   { 20, 17 }
| 11>  end
| 12> end
| 13> #
| 14> %rel
| 15>  picturechange 2
| 16> end
| 17> %casscf
| 18>  nel  7
| 19>  norb 5
| 20>  mult 4,2
| 21>  nroots 10,40
| 22>  maxiter 100
| 23>  ActOrbs dOrbs
| 24>  rel
| 25>   printlevel 3
| 26>   dosoc true
| 27>   gtensor true
| 28>   quad true
| 29>  end
| 30> end
| 31> * xyzfile 2 4 geo.xyz *
| 32> 
| 33>                          ****END OF INPUT****
================================================================================

                       ****************************
                       * Single Point Calculation *
                       ****************************

---------------------------------
CARTESIAN COORDINATES (ANGSTROEM)
---------------------------------
  Co     0.000000   -0.000030    0.000101
  O      1.881377    0.009089    0.002568
  H      2.465410   -0.757000   -0.211227
  H      2.457384    0.780836    0.217820
  O     -1.881377   -0.009092   -0.002559
  H     -2.465408    0.756999    0.211235
  H     -2.457386   -0.780801   -0.217939

----------------------------
CARTESIAN COORDINATES (A.U.)
----------------------------
  NO LB      ZA    FRAG     MASS         X           Y           Z
   0 Co   27.0000    0    58.930    0.000000   -0.000056    0.000192
   1 O     8.0000    0    15.999    3.555288    0.017176    0.004852
   2 H     1.0000    0     1.008    4.658950   -1.430523   -0.399161
   3 H     1.0000    0     1.008    4.643783    1.475565    0.411620
   4 O     8.0000    0    15.999   -3.555288   -0.017182   -0.004835
   5 H     1.0000    0     1.008   -4.658946    1.430520    0.399176
   6 H     1.0000    0     1.008   -4.643787   -1.475501   -0.411844

--------------------------------
INTERNAL COORDINATES (ANGSTROEM)
--------------------------------
 Co     0   0   0     0.000000000000     0.00000000     0.00000000
 O      1   0   0     1.881400850939     0.00000000     0.00000000
 H      2   1   0     0.986759996555   126.00206738     0.00000000
 H      2   1   3     0.986767374520   126.00109691   179.99499134
 O      1   2   3     1.881401067185   179.99384895   269.34253112
 H      5   1   2     0.986759912714   126.00199973   270.65309905
 H      5   1   2     0.986767250945   126.00118797    90.65742122

---------------------------
INTERNAL COORDINATES (A.U.)
---------------------------
 Co     0   0   0     0.000000000000     0.00000000     0.00000000
 O      1   0   0     3.555332356401     0.00000000     0.00000000
 H      2   1   0     1.864706153397   126.00206738     0.00000000
 H      2   1   3     1.864720095730   126.00109691   179.99499134
 O      1   2   3     3.555332765047   179.99384895   269.34253112
 H      5   1   2     1.864705994961   126.00199973   270.65309905
 H      5   1   2     1.864719862208   126.00118797    90.65742122

---------------------
BASIS SET INFORMATION
---------------------
There are 3 groups of distinct atoms

 Group   1 Type Co  : 17s12p7d2f1g contracted to 10s7p4d2f1g pattern {8111111111/6111111/4111/11/1}
 Group   2 Type O   : 11s6p2d1f contracted to 6s3p2d1f pattern {611111/411/11/1}
 Group   3 Type H   : 5s2p1d contracted to 3s2p1d pattern {311/11/1}

Atom   0Co   basis set group =>   1
Atom   1O    basis set group =>   2
Atom   2H    basis set group =>   3
Atom   3H    basis set group =>   3
Atom   4O    basis set group =>   2
Atom   5H    basis set group =>   3
Atom   6H    basis set group =>   3
---------------------------------
AUXILIARY/J BASIS SET INFORMATION
---------------------------------
There are 3 groups of distinct atoms

 Group   1 Type Co  : 22s18p17d17f16g6h3i contracted to 22s18p17d17f16g6h3i pattern {1111111111111111111111/111111111111111111/11111111111111111/11111111111111111/1111111111111111/111111/111}
 Group   2 Type O   : 16s13p12d7f3g contracted to 16s13p12d7f3g pattern {1111111111111111/1111111111111/111111111111/1111111/111}
 Group   3 Type H   : 11s4p3d2f contracted to 11s4p3d2f pattern {11111111111/1111/111/11}

Atom   0Co   basis set group =>   1
Atom   1O    basis set group =>   2
Atom   2H    basis set group =>   3
Atom   3H    basis set group =>   3
Atom   4O    basis set group =>   2
Atom   5H    basis set group =>   3
Atom   6H    basis set group =>   3
---------------------------------
AUXILIARY/C BASIS SET INFORMATION
---------------------------------
There are 3 groups of distinct atoms

 Group   1 Type Co  : 22s18p17d17f16g6h3i contracted to 22s18p17d17f16g6h3i pattern {1111111111111111111111/111111111111111111/11111111111111111/11111111111111111/1111111111111111/111111/111}
 Group   2 Type O   : 16s13p12d7f3g contracted to 16s13p12d7f3g pattern {1111111111111111/1111111111111/111111111111/1111111/111}
 Group   3 Type H   : 11s4p3d2f contracted to 11s4p3d2f pattern {11111111111/1111/111/11}

Atom   0Co   basis set group =>   1
Atom   1O    basis set group =>   2
Atom   2H    basis set group =>   3
Atom   3H    basis set group =>   3
Atom   4O    basis set group =>   2
Atom   5H    basis set group =>   3
Atom   6H    basis set group =>   3
----------------------------------
AUXILIARY/JK BASIS SET INFORMATION
----------------------------------
There are 3 groups of distinct atoms

 Group   1 Type Co  : 22s18p17d17f16g6h3i contracted to 22s18p17d17f16g6h3i pattern {1111111111111111111111/111111111111111111/11111111111111111/11111111111111111/1111111111111111/111111/111}
 Group   2 Type O   : 16s13p12d7f3g contracted to 16s13p12d7f3g pattern {1111111111111111/1111111111111/111111111111/1111111/111}
 Group   3 Type H   : 11s4p3d2f contracted to 11s4p3d2f pattern {11111111111/1111/111/11}

Atom   0Co   basis set group =>   1
Atom   1O    basis set group =>   2
Atom   2H    basis set group =>   3
Atom   3H    basis set group =>   3
Atom   4O    basis set group =>   2
Atom   5H    basis set group =>   3
Atom   6H    basis set group =>   3


           ************************************************************
           *        Program running with 10 parallel MPI-processes    *
           *              working on a common directory               *
           ************************************************************
------------------------------------------------------------------------------
                           ORCA GTO INTEGRAL CALCULATION
                           -- RI-GTO INTEGRALS CHOSEN --
------------------------------------------------------------------------------
------------------------------------------------------------------------------
                   ___                                                        
                  /   \      - P O W E R E D   B Y -                         
                 /     \                                                     
                 |  |  |   _    _      __       _____    __    __             
                 |  |  |  | |  | |    /  \     |  _  \  |  |  /  |          
                  \  \/   | |  | |   /    \    | | | |  |  | /  /          
                 / \  \   | |__| |  /  /\  \   | |_| |  |  |/  /          
                |  |  |   |  __  | /  /__\  \  |    /   |      \           
                |  |  |   | |  | | |   __   |  |    \   |  |\   \          
                \     /   | |  | | |  |  |  |  | |\  \  |  | \   \       
                 \___/    |_|  |_| |__|  |__|  |_| \__\ |__|  \__/        
                                                                              
                      - O R C A' S   B I G   F R I E N D -                    
                                      &                                       
                       - I N T E G R A L  F E E D E R -                       
                                                                              
 v1 FN, 2020, v2 2021                                                         
------------------------------------------------------------------------------


Reading SHARK input file rho.SHARKINP.tmp ... ok
----------------------
SHARK INTEGRAL PACKAGE
----------------------

Number of atoms                             ...      7
Number of basis functions                   ...    194
Number of shells                            ...     72
Maximum angular momentum                    ...      4
Integral batch strategy                     ... SHARK/LIBINT Hybrid
RI-J (if used) integral strategy            ... SPLIT-RIJ (Revised 2003 algorithm where possible)
Printlevel                                  ...      1
Contraction scheme used                     ... SEGMENTED contraction
Coulomb Range Separation                    ... NOT USED
Exchange Range Separation                   ... NOT USED
Finite Nucleus Model                        ... NOT USED
Auxiliary Coulomb fitting basis             ... AVAILABLE
   # of basis functions in Aux-J            ...   1119
   # of shells in Aux-J                     ...    281
   Maximum angular momentum in Aux-J        ...      6
Auxiliary J/K fitting basis                 ... AVAILABLE
   # of basis functions in Aux-JK           ...   1119
   # of shells in Aux-JK                    ...    281
   Maximum angular momentum in Aux-JK       ...      6
Auxiliary Correlation fitting basis         ... AVAILABLE
   # of basis functions in Aux-C            ...   1119
   # of shells in Aux-C                     ...    281
   Maximum angular momentum in Aux-C        ...      6
Auxiliary 'external' fitting basis          ... NOT available
Integral threshold                          ...     1.000000e-12
Primitive cut-off                           ...     1.000000e-14
Primitive pair pre-selection threshold      ...     1.000000e-14

Calculating pre-screening integrals         ... done (  0.0 sec) Dimension = 72
Organizing shell pair data                  ... done (  0.0 sec)
Shell pair information
Total number of shell pairs                 ...      2628
Shell pairs after pre-screening             ...      2409
Total number of primitive shell pairs       ...      6319
Primitive shell pairs kept                  ...      4882
          la=0 lb=0:    524 shell pairs
          la=1 lb=0:    660 shell pairs
          la=1 lb=1:    222 shell pairs
          la=2 lb=0:    372 shell pairs
          la=2 lb=1:    234 shell pairs
          la=2 lb=2:     69 shell pairs
          la=3 lb=0:    124 shell pairs
          la=3 lb=1:     80 shell pairs
          la=3 lb=2:     42 shell pairs
          la=3 lb=3:     10 shell pairs
          la=4 lb=0:     34 shell pairs
          la=4 lb=1:     21 shell pairs
          la=4 lb=2:     12 shell pairs
          la=4 lb=3:      4 shell pairs
          la=4 lb=4:      1 shell pairs

Calculating one electron integrals          ... done (  0.0 sec)
Calculating RI/J V-Matrix + Cholesky decomp.... done (  0.1 sec)
Calculating RI/JK V-Matrix + Cholesky decomp... done (  0.1 sec)
Calculating RI/C V-Matrix + Cholesky decomp.... done (  0.1 sec)
Calculating Nuclear repulsion               ... done (  0.0 sec) ENN=    174.672522322440 Eh

SHARK setup successfully completed in   0.4 seconds

Maximum memory used throughout the entire GTOINT-calculation: 36.4 MB


           ************************************************************
           *        Program running with 10 parallel MPI-processes    *
           *              working on a common directory               *
           ************************************************************
------------------------------------------------------------------------------
                          ORCA RELATIVISTIC HAMILTONIAN
------------------------------------------------------------------------------

Relativistic Method            ... DKH
Order of DKH treatment         ...   2
Treatment of potential         ... V(e,N)
Eps parameter for DKH          ...   0.00000000010000
Nucleus model                  ... Point Nucleus
Speed of light used            ... 137.03598950000000


            ************************************************
            *        DOUGLAS-KROLL-HESS HAMILTONIAN        *
            *   Programmed by FN according to literature   *
            *        procedures. Special thanks to         *
            *       B.A. Hess, M. Reiher and A. Wolf       *
            *     University Erlangen-Nuernberg/Bonn       *
            ************************************************

Uncontracting the basis (first version)        ... done
Number of contracted basis functions           ...  194
Number of uncontracted basis functions         ...  267
Initializing the DKH file                      ... done
Calculating the relativistic integrals         ... done
Storing DKH matrices                           ... done
Code used for DKH trafo                        ... ORCA
Computing the DKH transformation               ... done
Storing the transformation variables           ... done
Transforming V and pVp to p**2 space           ... done
First transformation of V and pVp              ... done
Second transformation of Veff                  ... done
Adding kinetic energy                          ... done
Back transformation of Veff to r-space         ... done
Recovering DKH matrices                        ... done
Recontracting the H-matrix (first version)     ... done
Computing the DKH correction to the H-matrix   ... done
Reading the original H-matrix                  ... done
Adding DKH correction to the H-matrix          ... done
Storing the new modified H-matrix              ... done

Maximum memory used throughout the entire REL-calculation: 68.5 MB


           ************************************************************
           *        Program running with 10 parallel MPI-processes    *
           *              working on a common directory               *
           ************************************************************
-------------------------------------------------------------------------------
                                 ORCA SCF
-------------------------------------------------------------------------------

------------
SCF SETTINGS
------------
Hamiltonian:
 Ab initio Hamiltonian  Method          .... Hartree-Fock(GTOs)
 RI-approximation to the Coulomb term is turned on
   Number of AuxJ basis functions       .... 1119
   RIJ-COSX (HFX calculated with COS-X)).... on

Relativistic Settings:
 Scalar relativistic method             .... Douglas-Kroll-Hess
 Order of DKH procedure    Order        ....    2
 Mode of DKH-treatment                  .... V=V(e,N)
 Speed of light used       Velit        ....       137.035989
 Cutoff-constant           Eps          ....            1e-10 


General Settings:
 Integral files         IntName         .... rho
 Hartree-Fock type      HFTyp           .... CASSCF
 Total Charge           Charge          ....    2
 Multiplicity           Mult            ....    4
 Number of Electrons    NEL             ....   45
 Basis Dimension        Dim             ....  194
 Nuclear Repulsion      ENuc            ....    174.6725223224 Eh


Diagonalization of the overlap matrix:
Smallest eigenvalue                        ... 5.930e-04
Time for diagonalization                   ...    0.006 sec
Threshold for overlap eigenvalues          ... 1.000e-08
Number of eigenvalues below threshold      ... 0
Time for construction of square roots      ...    0.008 sec
Total time needed                          ...    0.016 sec

---------------------
INITIAL GUESS: MOREAD
---------------------
Guess MOs are being read from file: orb.gbw
Input Geometry matches current geometry (good)
Atom 0: N(Shells)= 24 and 18 - projection required
Input basis set needs projection
NBasis(read)= 182
NBasis(calc)= 194
Basis set overlap was calculated
Using GuessMode=CMatrix for the initial guess
Initial orthogonal set was formed
CASSCF - fitting 2 shells:
   closed-shell contains  19 orbitals (  0 ...  18)
   active space contains   5 orbitals ( 19 ...  23)
Virtual orbitals were projected
Gram-Schmidt orthogonalization of all MOs with pivot on actives
-----------------
ORBITAL ROTATIONS
-----------------
  Rotation  20(0)   17(0) cos(t)= 0.000000  sin(t)= 1.000000
  Orbital Energies were swapped
Initial density was built
Canonicalizing active space vectors CAS(7,5) {19-23} C(194,194) Cact Ract BOVL(182,194) COVL Diag BackTrafo Restore
Active space vectors have been canonicalized
                      ------------------
                      INITIAL GUESS DONE (   0.1 sec)
                      ------------------
--------------------
COSX GRID GENERATION
--------------------

GRIDX 1
-------
General Integration Accuracy     IntAcc      ... 3.816
Radial Grid Type                 RadialGrid  ... OptM3 with GC (2021)
Angular Grid (max. ang.)         AngularGrid ... 1 (Lebedev-50)
Angular grid pruning method      GridPruning ... 4 (adaptive)
Weight generation scheme         WeightScheme... Becke
Basis function cutoff            BFCut       ... 1.0000e-12
Integration weight cutoff        WCut        ... 1.0000e-14
Angular grids for H and He will be reduced by one unit
Partially contracted basis set               ... on
Rotationally invariant grid construction     ... off

Total number of grid points                  ...     4520
Total number of batches                      ...       73
Average number of points per batch           ...       61
Average number of grid points per atom       ...      646

GRIDX 2
-------
General Integration Accuracy     IntAcc      ... 4.020
Radial Grid Type                 RadialGrid  ... OptM3 with GC (2021)
Angular Grid (max. ang.)         AngularGrid ... 2 (Lebedev-110)
Angular grid pruning method      GridPruning ... 4 (adaptive)
Weight generation scheme         WeightScheme... Becke
Basis function cutoff            BFCut       ... 1.0000e-12
Integration weight cutoff        WCut        ... 1.0000e-14
Angular grids for H and He will be reduced by one unit
Partially contracted basis set               ... on
Rotationally invariant grid construction     ... off

Total number of grid points                  ...     9616
Total number of batches                      ...      153
Average number of points per batch           ...       62
Average number of grid points per atom       ...     1374

GRIDX 3
-------
General Integration Accuracy     IntAcc      ... 4.338
Radial Grid Type                 RadialGrid  ... OptM3 with GC (2021)
Angular Grid (max. ang.)         AngularGrid ... 3 (Lebedev-194)
Angular grid pruning method      GridPruning ... 4 (adaptive)
Weight generation scheme         WeightScheme... Becke
Basis function cutoff            BFCut       ... 1.0000e-12
Integration weight cutoff        WCut        ... 1.0000e-14
Angular grids for H and He will be reduced by one unit
Partially contracted basis set               ... on
Rotationally invariant grid construction     ... off

Total number of grid points                  ...    21388
Total number of batches                      ...      338
Average number of points per batch           ...       63
Average number of grid points per atom       ...     3055

Time for X-Grid setup             =    0.126 sec



 ... the calculation is a CASSCF calculation -I'm leaving here GOOD LUCK!!!



           ************************************************************
           *        Program running with 10 parallel MPI-processes    *
           *              working on a common directory               *
           ************************************************************
-------------------------------------------------------------------------------
                              ORCA-CASSCF
-------------------------------------------------------------------------------

Setting up the integral package       ... done
Setting up the integral package (RI)  ... done
Building the CAS space                ... done (10 configurations for Mult=4)
Building the CAS space                ... done (30 configurations for Mult=2)

SYSTEM-SPECIFIC SETTINGS:
Number of active electrons          ...    7
Number of active orbitals           ...    5
Total number of electrons           ...   45
Total number of orbitals            ...  194
Total number aux. functions         ... 1119

Determined orbital ranges:
   Internal       0 -   18 (  19 orbitals)
   Active        19 -   23 (   5 orbitals)
   External      24 -  193 ( 170 orbitals)
Number of rotation parameters      ...   4175

CI-STEP:
CI strategy                         ... General CI
Number of multiplicity blocks       ...    2
BLOCK  1 WEIGHT=   0.5000
  Multiplicity                      ...    4
  #(Configurations)                 ...   10
  #(CSFs)                           ...   10
  #(Roots)                          ...   10
    ROOT=0 WEIGHT=    0.050000
    ROOT=1 WEIGHT=    0.050000
    ROOT=2 WEIGHT=    0.050000
    ROOT=3 WEIGHT=    0.050000
    ROOT=4 WEIGHT=    0.050000
    ROOT=5 WEIGHT=    0.050000
    ROOT=6 WEIGHT=    0.050000
    ROOT=7 WEIGHT=    0.050000
    ROOT=8 WEIGHT=    0.050000
    ROOT=9 WEIGHT=    0.050000

BLOCK  2 WEIGHT=   0.5000
  Multiplicity                      ...    2
  #(Configurations)                 ...   30
  #(CSFs)                           ...   40
  #(Roots)                          ...   40
    ROOT=0 WEIGHT=    0.012500
    ROOT=1 WEIGHT=    0.012500
    ROOT=2 WEIGHT=    0.012500
    ROOT=3 WEIGHT=    0.012500
    ROOT=4 WEIGHT=    0.012500
    ROOT=5 WEIGHT=    0.012500
    ROOT=6 WEIGHT=    0.012500
    ROOT=7 WEIGHT=    0.012500
    ROOT=8 WEIGHT=    0.012500
    ROOT=9 WEIGHT=    0.012500
    ROOT=10 WEIGHT=    0.012500
    ROOT=11 WEIGHT=    0.012500
    ROOT=12 WEIGHT=    0.012500
    ROOT=13 WEIGHT=    0.012500
    ROOT=14 WEIGHT=    0.012500
    ROOT=15 WEIGHT=    0.012500
    ROOT=16 WEIGHT=    0.012500
    ROOT=17 WEIGHT=    0.012500
    ROOT=18 WEIGHT=    0.012500
    ROOT=19 WEIGHT=    0.012500
    ROOT=20 WEIGHT=    0.012500
    ROOT=21 WEIGHT=    0.012500
    ROOT=22 WEIGHT=    0.012500
    ROOT=23 WEIGHT=    0.012500
    ROOT=24 WEIGHT=    0.012500
    ROOT=25 WEIGHT=    0.012500
    ROOT=26 WEIGHT=    0.012500
    ROOT=27 WEIGHT=    0.012500
    ROOT=28 WEIGHT=    0.012500
    ROOT=29 WEIGHT=    0.012500
    ROOT=30 WEIGHT=    0.012500
    ROOT=31 WEIGHT=    0.012500
    ROOT=32 WEIGHT=    0.012500
    ROOT=33 WEIGHT=    0.012500
    ROOT=34 WEIGHT=    0.012500
    ROOT=35 WEIGHT=    0.012500
    ROOT=36 WEIGHT=    0.012500
    ROOT=37 WEIGHT=    0.012500
    ROOT=38 WEIGHT=    0.012500
    ROOT=39 WEIGHT=    0.012500

  PrintLevel                        ...    1
  N(GuessMat)                       ...       512
  MaxDim(CI)                        ...        10
  MaxIter(CI)                       ...        64
  Energy Tolerance CI               ...  1.00e-09
  Residual Tolerance CI             ...  1.00e-09
  Shift(CI)                         ...  1.00e-04

INTEGRAL-TRANSFORMATION-STEP:
  Algorithm                         ... RI-MO

ORBITAL-IMPROVEMENT-STEP:
  Algorithm                         ... SuperCI
  Default Parametrization           ... CAYLEY
  Act-Act rotations                 ... depends on algorithm used
  FreezeIE                          ... 95.00% of ||g||
  Until reaching FreezeIE rotations with active orbitals are damped. 

  Approx. Fock at                   ... 0.000000e+00 density convergence
  Level shift                       ... energy gap dependent. Minimum=1.000
  Switch step at gradient           ...  3.00e-02 
  Switch step at iteration          ...        50   
  Switch step to                    ... DIIS    

SCF-SETTINGS:
  Incremental                       ... off
  RIJCOSX approximation             ... on
  UseFinalGrid                      ... on
  RI-JK approximation               ... off
  AO integral handling              ... DIRECT
  Integral Neglect Thresh           ...  1.00e-12
  Primitive cutoff TCut             ...  1.00e-14
  Energy convergence tolerance      ...  1.00e-08
  Orbital gradient convergence      ...  1.00e-05
  Max. number of iterations         ...       100  


PROPERTIES-SETTINGS:
  Spin orbit coupling               ... true
  GTensor                           ... true

FINAL ORBITALS:
  Active   Orbitals                 ... d-orbitals 
  Internal Orbitals                 ... canonical 
  External Orbitals                 ... canonical 

------------------
CAS-SCF ITERATIONS
------------------


MACRO-ITERATION   1: 
   --- Canonicalize Internal Space
   --- Canonicalize External Space
   --- Inactive Energy E0 = -1517.20566729 Eh
CI-ITERATION   0: 
 -1542.404556976   0.000000000000 (    0.00)
 -1542.399672479   0.000000000000
 -1542.393277207   0.000000000000
 -1542.377306670   0.000000000000
 -1542.373005507   0.000000000000
 -1542.353433424   0.000000000000
 -1542.350649704   0.000000000000
 -1542.313774080   0.000000000000
 -1542.298086291   0.000000000000
 -1542.286346776   0.000000000000
   CI-PROBLEM SOLVED
   DENSITIES MADE
CI-ITERATION   0: 
 -1542.341940595   0.000000000000 (    0.02)
 -1542.339434734   0.000000000000
 -1542.326582838   0.000000000000
 -1542.321658803   0.000000000000
 -1542.312481372   0.000000000000
 -1542.312248001   0.000000000000
 -1542.311469856   0.000000000000
 -1542.305129303   0.000000000000
 -1542.304163416   0.000000000000
 -1542.303603292   0.000000000000
 -1542.295109159   0.000000000000
 -1542.291850696   0.000000000000
 -1542.284922397   0.000000000000
 -1542.282172782   0.000000000000
 -1542.279553942   0.000000000000
 -1542.274739345   0.000000000000
 -1542.269909533   0.000000000000
 -1542.268302277   0.000000000000
 -1542.266086506   0.000000000000
 -1542.263105080   0.000000000000
 -1542.261390858   0.000000000000
 -1542.260239599   0.000000000000
 -1542.260068989   0.000000000000
 -1542.255343842   0.000000000000
 -1542.250281487   0.000000000000
 -1542.249963362   0.000000000000
 -1542.243192861   0.000000000000
 -1542.241544503   0.000000000000
 -1542.209943044   0.000000000000
 -1542.206430289   0.000000000000
 -1542.202585531   0.000000000000
 -1542.194697727   0.000000000000
 -1542.194650132   0.000000000000
 -1542.189812760   0.000000000000
 -1542.189221912   0.000000000000
 -1542.112351419   0.000000000000
 -1542.102229796   0.000000000000
 -1542.098191637   0.000000000000
 -1542.083841707   0.000000000000
 -1542.080289938   0.000000000000
   CI-PROBLEM SOLVED
   DENSITIES MADE

                 <<<<<<<<<<<<<<<<<<INITIAL CI STATE CHECK>>>>>>>>>>>>>>>>>>

BLOCK  1 MULT= 4 NROOTS=10 
ROOT   0:  E=   -1542.4045569764 Eh
      0.74703 [     0]: 11122
      0.22164 [     4]: 12121
      0.03078 [     8]: 21211
ROOT   1:  E=   -1542.3996724785 Eh  0.133 eV   1072.0 cm**-1
      0.84050 [     2]: 11221
      0.10729 [     6]: 21112
      0.05087 [     9]: 22111
ROOT   2:  E=   -1542.3932772074 Eh  0.307 eV   2475.6 cm**-1
      0.82214 [     7]: 21121
      0.15399 [     1]: 11212
      0.02359 [     5]: 12211
ROOT   3:  E=   -1542.3773066702 Eh  0.742 eV   5980.8 cm**-1
      0.82486 [     8]: 21211
      0.17181 [     4]: 12121
ROOT   4:  E=   -1542.3730055068 Eh  0.859 eV   6924.7 cm**-1
      0.88802 [     6]: 21112
      0.08986 [     2]: 11221
      0.02191 [     9]: 22111
ROOT   5:  E=   -1542.3534334237 Eh  1.391 eV  11220.3 cm**-1
      0.99845 [     3]: 12112
ROOT   6:  E=   -1542.3506497038 Eh  1.467 eV  11831.3 cm**-1
      0.97585 [     5]: 12211
      0.01755 [     7]: 21121
      0.00649 [     1]: 11212
ROOT   7:  E=   -1542.3137740804 Eh  2.470 eV  19924.5 cm**-1
      0.83808 [     1]: 11212
      0.16020 [     7]: 21121
ROOT   8:  E=   -1542.2980862914 Eh  2.897 eV  23367.6 cm**-1
      0.60507 [     4]: 12121
      0.25111 [     0]: 11122
      0.14290 [     8]: 21211
ROOT   9:  E=   -1542.2863467762 Eh  3.217 eV  25944.1 cm**-1
      0.92574 [     9]: 22111
      0.06805 [     2]: 11221
      0.00461 [     6]: 21112

BLOCK  2 MULT= 2 NROOTS=40 
ROOT   0:  E=   -1542.3419405953 Eh
      0.78130 [    14]: 20122
      0.16112 [    19]: 21121
      0.02350 [     1]: 02122
      0.01476 [    12]: 12211
      0.00941 [    27]: 22120
      0.00449 [    25]: 22102
      0.00396 [     6]: 11212
ROOT   1:  E=   -1542.3394347337 Eh  0.068 eV    550.0 cm**-1
      0.82617 [    16]: 20221
      0.09395 [    22]: 21220
      0.02967 [    24]: 22021
      0.01672 [     9]: 12112
      0.01373 [     3]: 02221
      0.00899 [     0]: 01222
      0.00610 [    28]: 22201
      0.00319 [    19]: 21121
ROOT   2:  E=   -1542.3265828379 Eh  0.418 eV   3370.6 cm**-1
      0.72477 [     7]: 11221
      0.16703 [     4]: 10222
      0.05640 [     8]: 12022
      0.02304 [    18]: 21112
      0.02011 [    13]: 12220
      0.00633 [    26]: 22111
ROOT   3:  E=   -1542.3216588034 Eh  0.552 eV   4451.3 cm**-1
      0.69780 [     5]: 11122
      0.13558 [    10]: 12121
      0.10706 [    21]: 21211
      0.04917 [    15]: 20212
      0.00393 [     2]: 02212
      0.00352 [    29]: 22210
ROOT   4:  E=   -1542.3124813722 Eh  0.802 eV   6465.6 cm**-1
      0.51988 [    18]: 21112
      0.21602 [    13]: 12220
      0.16059 [     7]: 11221
      0.09049 [     4]: 10222
      0.00876 [    26]: 22111
      0.00310 [    11]: 12202
ROOT   5:  E=   -1542.3122480008 Eh  0.808 eV   6516.8 cm**-1
      0.26757 [     3]: 02221
      0.26068 [     0]: 01222
      0.25964 [    17]: 21022
      0.09802 [    22]: 21220
      0.04326 [     9]: 12112
      0.03064 [    24]: 22021
      0.02324 [    20]: 21202
      0.01332 [    16]: 20221
      0.00266 [    28]: 22201
ROOT   6:  E=   -1542.3114698563 Eh  0.829 eV   6687.6 cm**-1
      0.39715 [    21]: 21211
      0.35909 [     5]: 11122
      0.18466 [    10]: 12121
      0.03541 [    23]: 22012
      0.00815 [     2]: 02212
      0.00790 [    15]: 20212
      0.00503 [    29]: 22210
ROOT   7:  E=   -1542.3051293033 Eh  1.002 eV   8079.1 cm**-1
      0.60981 [     7]: 11221
      0.21142 [    18]: 21112
      0.12813 [     4]: 10222
      0.04355 [    26]: 22111
ROOT   8:  E=   -1542.3041634158 Eh  1.028 eV   8291.1 cm**-1
      0.77143 [    19]: 21121
      0.07882 [    12]: 12211
      0.04480 [     1]: 02122
      0.04326 [    27]: 22120
      0.04324 [    14]: 20122
      0.01129 [    25]: 22102
      0.00526 [     6]: 11212
ROOT   9:  E=   -1542.3036032922 Eh  1.043 eV   8414.1 cm**-1
      0.49190 [    22]: 21220
      0.29532 [    17]: 21022
      0.09488 [     9]: 12112
      0.05409 [    16]: 20221
      0.02799 [    24]: 22021
      0.01267 [    28]: 22201
      0.00980 [     3]: 02221
      0.00788 [     0]: 01222
      0.00330 [    20]: 21202
ROOT  10:  E=   -1542.2951091586 Eh  1.274 eV  10278.3 cm**-1
      0.40361 [    15]: 20212
      0.23024 [     5]: 11122
      0.19157 [    21]: 21211
      0.08188 [    10]: 12121
      0.07836 [    29]: 22210
      0.01162 [    23]: 22012
ROOT  11:  E=   -1542.2918506956 Eh  1.363 eV  10993.5 cm**-1
      0.44427 [     6]: 11212
      0.36438 [    19]: 21121
      0.12442 [    12]: 12211
      0.04713 [    27]: 22120
      0.01396 [    14]: 20122
ROOT  12:  E=   -1542.2849223974 Eh  1.552 eV  12514.0 cm**-1
      0.60764 [    18]: 21112
      0.17952 [    13]: 12220
      0.09386 [     7]: 11221
      0.05719 [     4]: 10222
      0.04522 [     8]: 12022
      0.01549 [    26]: 22111
ROOT  13:  E=   -1542.2821727815 Eh  1.626 eV  13117.5 cm**-1
      0.46028 [    21]: 21211
      0.20142 [    15]: 20212
      0.19039 [    10]: 12121
      0.08086 [     5]: 11122
      0.05124 [    23]: 22012
      0.01267 [    29]: 22210
ROOT  14:  E=   -1542.2795539415 Eh  1.698 eV  13692.3 cm**-1
      0.31835 [     6]: 11212
      0.30147 [     1]: 02122
      0.23389 [    12]: 12211
      0.12505 [    19]: 21121
      0.01450 [    14]: 20122
      0.00484 [    27]: 22120
ROOT  15:  E=   -1542.2747393449 Eh  1.829 eV  14749.0 cm**-1
      0.35262 [     9]: 12112
      0.30084 [     3]: 02221
      0.18753 [    17]: 21022
      0.10952 [    20]: 21202
      0.02771 [    28]: 22201
      0.01165 [     0]: 01222
      0.00677 [    24]: 22021
ROOT  16:  E=   -1542.2699095331 Eh  1.960 eV  15809.0 cm**-1
      0.35251 [    18]: 21112
      0.29971 [     8]: 12022
      0.15736 [    13]: 12220
      0.09764 [     4]: 10222
      0.05274 [     7]: 11221
      0.02840 [    26]: 22111
      0.00733 [    11]: 12202
ROOT  17:  E=   -1542.2683022771 Eh  2.004 eV  16161.7 cm**-1
      0.51077 [    12]: 12211
      0.20433 [     1]: 02122
      0.13981 [    19]: 21121
      0.06652 [    14]: 20122
      0.05111 [     6]: 11212
      0.01780 [    27]: 22120
      0.00851 [    25]: 22102
ROOT  18:  E=   -1542.2660865065 Eh  2.064 eV  16648.0 cm**-1
      0.48226 [     9]: 12112
      0.16674 [     3]: 02221
      0.15218 [    22]: 21220
      0.11427 [    17]: 21022
      0.05395 [    16]: 20221
      0.01903 [    20]: 21202
      0.00646 [     0]: 01222
      0.00367 [    24]: 22021
ROOT  19:  E=   -1542.2631050795 Eh  2.145 eV  17302.4 cm**-1
      0.81649 [     9]: 12112
      0.08163 [    22]: 21220
      0.03144 [     0]: 01222
      0.01763 [    20]: 21202
      0.01517 [    24]: 22021
      0.01376 [     3]: 02221
      0.01284 [    17]: 21022
      0.00564 [    16]: 20221
      0.00395 [    28]: 22201
ROOT  20:  E=   -1542.2613908576 Eh  2.192 eV  17678.6 cm**-1
      0.44450 [     2]: 02212
      0.19915 [    23]: 22012
      0.18820 [    21]: 21211
      0.07486 [     5]: 11122
      0.06441 [    29]: 22210
      0.02747 [    10]: 12121
ROOT  21:  E=   -1542.2602395988 Eh  2.223 eV  17931.3 cm**-1
      0.55197 [    12]: 12211
      0.29890 [     6]: 11212
      0.06207 [    25]: 22102
      0.03105 [    27]: 22120
      0.02541 [     1]: 02122
      0.02249 [    19]: 21121
      0.00723 [    14]: 20122
ROOT  22:  E=   -1542.2600689893 Eh  2.228 eV  17968.7 cm**-1
      0.36185 [    21]: 21211
      0.25691 [     2]: 02212
      0.17290 [    10]: 12121
      0.13245 [     5]: 11122
      0.04485 [    23]: 22012
      0.02912 [    15]: 20212
ROOT  23:  E=   -1542.2553438416 Eh  2.356 eV  19005.8 cm**-1
      0.33185 [     6]: 11212
      0.32853 [    25]: 22102
      0.20922 [    12]: 12211
      0.06176 [    19]: 21121
      0.05410 [     1]: 02122
      0.01272 [    27]: 22120
ROOT  24:  E=   -1542.2502814869 Eh  2.494 eV  20116.8 cm**-1
      0.44807 [    26]: 22111
      0.20175 [     8]: 12022
      0.17840 [    13]: 12220
      0.11045 [    18]: 21112
      0.05461 [     7]: 11221
      0.00279 [     4]: 10222
ROOT  25:  E=   -1542.2499633621 Eh  2.503 eV  20186.7 cm**-1
      0.36492 [    10]: 12121
      0.23086 [    29]: 22210
      0.19745 [    23]: 22012
      0.15015 [    21]: 21211
      0.04633 [     5]: 11122
      0.00479 [    15]: 20212
      0.00349 [     2]: 02212
ROOT  26:  E=   -1542.2431928612 Eh  2.687 eV  21672.6 cm**-1
      0.60812 [    11]: 12202
      0.30377 [    26]: 22111
      0.02712 [     7]: 11221
      0.01690 [     4]: 10222
      0.01600 [     8]: 12022
      0.01487 [    13]: 12220
      0.01243 [    18]: 21112
ROOT  27:  E=   -1542.2415445032 Eh  2.732 eV  22034.4 cm**-1
      0.43390 [    20]: 21202
      0.34623 [    28]: 22201
      0.10756 [     0]: 01222
      0.04586 [     9]: 12112
      0.04081 [     3]: 02221
      0.01567 [    17]: 21022
      0.00723 [    24]: 22021
ROOT  28:  E=   -1542.2099430440 Eh  3.592 eV  28970.1 cm**-1
      0.29761 [    19]: 21121
      0.26655 [     6]: 11212
      0.21156 [    12]: 12211
      0.18215 [     1]: 02122
      0.02309 [    25]: 22102
      0.01659 [    14]: 20122
ROOT  29:  E=   -1542.2064302886 Eh  3.687 eV  29741.1 cm**-1
      0.52666 [    10]: 12121
      0.16000 [    15]: 20212
      0.11937 [     5]: 11122
      0.06380 [    21]: 21211
      0.06004 [     2]: 02212
      0.05437 [    29]: 22210
      0.01470 [    23]: 22012
ROOT  30:  E=   -1542.2025855314 Eh  3.792 eV  30584.9 cm**-1
      0.51833 [    26]: 22111
      0.19934 [     4]: 10222
      0.09608 [    11]: 12202
      0.08318 [     8]: 12022
      0.07071 [    18]: 21112
      0.02333 [     7]: 11221
      0.00764 [    13]: 12220
ROOT  31:  E=   -1542.1946977270 Eh  4.007 eV  32316.1 cm**-1
      0.49906 [    26]: 22111
      0.19726 [     7]: 11221
      0.11497 [     8]: 12022
      0.08723 [    13]: 12220
      0.04454 [     4]: 10222
      0.04103 [    18]: 21112
      0.01209 [    11]: 12202
ROOT  32:  E=   -1542.1946501317 Eh  4.008 eV  32326.5 cm**-1
      0.29319 [    29]: 22210
      0.21931 [    10]: 12121
      0.20821 [     5]: 11122
      0.20426 [    23]: 22012
      0.05843 [    21]: 21211
      0.01101 [    15]: 20212
ROOT  33:  E=   -1542.1898127602 Eh  4.140 eV  33388.2 cm**-1
      0.39514 [    25]: 22102
      0.29726 [    27]: 22120
      0.24366 [     6]: 11212
      0.04823 [     1]: 02122
      0.01159 [    19]: 21121
ROOT  34:  E=   -1542.1892219116 Eh  4.156 eV  33517.9 cm**-1
      0.32054 [    24]: 22021
      0.29456 [    28]: 22201
      0.25356 [     0]: 01222
      0.07905 [     3]: 02221
      0.03779 [    20]: 21202
      0.00573 [    22]: 21220
      0.00485 [     9]: 12112
ROOT  35:  E=   -1542.1123514190 Eh  6.247 eV  50389.0 cm**-1
      0.35132 [    20]: 21202
      0.27630 [     0]: 01222
      0.12949 [    28]: 22201
      0.08075 [    17]: 21022
      0.07764 [     9]: 12112
      0.07127 [    22]: 21220
      0.00883 [     3]: 02221
      0.00308 [    16]: 20221
ROOT  36:  E=   -1542.1022297958 Eh  6.523 eV  52610.4 cm**-1
      0.26894 [    11]: 12202
      0.19348 [     4]: 10222
      0.17839 [     8]: 12022
      0.13842 [    13]: 12220
      0.12305 [    26]: 22111
      0.05299 [     7]: 11221
      0.04421 [    18]: 21112
ROOT  37:  E=   -1542.0981916367 Eh  6.633 eV  53496.7 cm**-1
      0.25643 [    29]: 22210
      0.23603 [    23]: 22012
      0.22018 [     2]: 02212
      0.12984 [    15]: 20212
      0.09359 [    10]: 12121
      0.04585 [     5]: 11122
      0.01755 [    21]: 21211
ROOT  38:  E=   -1542.0838417074 Eh  7.023 eV  56646.2 cm**-1
      0.53471 [    27]: 22120
      0.16260 [    25]: 22102
      0.11307 [     1]: 02122
      0.06186 [    12]: 12211
      0.05486 [    14]: 20122
      0.03883 [    19]: 21121
      0.03276 [     6]: 11212
ROOT  39:  E=   -1542.0802899376 Eh  7.120 eV  57425.7 cm**-1
      0.55545 [    24]: 22021
      0.17626 [    28]: 22201
      0.09880 [     3]: 02221
      0.06227 [     9]: 12112
      0.03941 [    16]: 20221
      0.03400 [     0]: 01222
      0.02898 [    17]: 21022
      0.00260 [    20]: 21202

                 <<<<<<<<<<<<<<<<<<INITIAL CI STATE CHECK>>>>>>>>>>>>>>>>>>

   E(CAS)= -1542.300514647 Eh DE=    0.000000e+00
   --- Energy gap subspaces: Ext-Act = 1.455   Act-Int = 0.082
   --- current l-shift: Up(Ext-Act) = 1.00   Dn(Act-Int) = 1.92
   N(occ)=  1.40000 1.40000 1.40000 1.40000 1.40000
   ||g|| =     1.219120e+02 Max(G)=    1.102029e+02 Rot=193,0
   --- Option=FreezeIE: ||g|| =    121.906918353 
                              = 100.00% 
                        Damping (0.029) elements outside Int-Ext
   --- Orbital Update [   SuperCI]
   SUPERCI-ITER   0: DE=    -0.252818262 <r|r>=      0.005063532
   SUPERCI-ITER   1: DE=    -0.000500037 <r|r>=      0.010382513
   SUPERCI-ITER   2: DE=    -0.000035995 <r|r>=      0.001204649
   SUPERCI-ITER   3: DE=    -0.000007935 <r|r>=      0.000040067
   SUPERCI-ITER   4: DE=    -0.000001423 <r|r>=      0.000004659
   SUPERCI-ITER   5: DE=    -0.000000176 <r|r>=      0.000000596
   SUPERCI-ITER   6: DE=    -0.000000023 <r|r>=      0.000000126
   SUPERCI-ITER   7: DE=    -0.000000004 <r|r>=      0.000000019
   SUPERCI-ITER   8: DE=    -0.000000000 
   <Psi(SX)|Psi(SX)>=      1.000000000 DE(SX)=-0.253363856
   Largest coefficient in the normalized |SX> wavefunction= 0.009674204
   --- Forming Natural Orbitals

MACRO-ITERATION   2: 
   --- Canonicalize Internal Space
   --- Canonicalize External Space
   --- Inactive Energy E0 = -1518.26768940 Eh
CI-ITERATION   0: 
 -1543.334756454   0.000000000000 (    0.00)
 -1543.329067551   0.000000000000
 -1543.323013178   0.000000000000
 -1543.303935777   0.000000000000
 -1543.299853930   0.000000000000
 -1543.280188133   0.000000000000
 -1543.276792564   0.000000000000
 -1543.240275963   0.000000000000
 -1543.228455644   0.000000000000
 -1543.212875667   0.000000000000
   CI-PROBLEM SOLVED
   DENSITIES MADE
CI-ITERATION   0: 
 -1543.271703416   0.000000000000 (    0.00)
 -1543.268681384   0.000000000000
 -1543.255838349   0.000000000000
 -1543.251153300   0.000000000000
 -1543.242025767   0.000000000000
 -1543.240395340   0.000000000000
 -1543.239809232   0.000000000000
 -1543.234225779   0.000000000000
 -1543.233837831   0.000000000000
 -1543.233488017   0.000000000000
 -1543.221980287   0.000000000000
 -1543.219467427   0.000000000000
 -1543.212511193   0.000000000000
 -1543.209342715   0.000000000000
 -1543.207551721   0.000000000000
 -1543.202824049   0.000000000000
 -1543.198798620   0.000000000000
 -1543.196014755   0.000000000000
 -1543.194239796   0.000000000000
 -1543.190204358   0.000000000000
 -1543.188212722   0.000000000000
 -1543.187403057   0.000000000000
 -1543.186694371   0.000000000000
 -1543.180715927   0.000000000000
 -1543.178945595   0.000000000000
 -1543.178366131   0.000000000000
 -1543.167276184   0.000000000000
 -1543.165433972   0.000000000000
 -1543.137806374   0.000000000000
 -1543.135230845   0.000000000000
 -1543.129661784   0.000000000000
 -1543.122727479   0.000000000000
 -1543.122587893   0.000000000000
 -1543.116973677   0.000000000000
 -1543.115912049   0.000000000000
 -1543.037649307   0.000000000000
 -1543.029537338   0.000000000000
 -1543.024507084   0.000000000000
 -1543.012552090   0.000000000000
 -1543.009057485   0.000000000000
   CI-PROBLEM SOLVED
   DENSITIES MADE
   E(CAS)= -1543.228352552 Eh DE=   -9.278379e-01
   --- Energy gap subspaces: Ext-Act = 0.505   Act-Int = 0.112
   --- current l-shift: Up(Ext-Act) = 1.00   Dn(Act-Int) = 1.39
   N(occ)=  1.40000 1.40000 1.40000 1.40000 1.40000
   ||g|| =     3.605846e+01 Max(G)=   -3.264051e+01 Rot=193,0
   --- Option=FreezeIE: ||g|| =     36.041909120 
                              = 99.95% 
                        Damping (0.029) elements outside Int-Ext
   --- Orbital Update [   SuperCI]
   SUPERCI-ITER   0: DE=    -0.022220802 <r|r>=      0.000006252
   SUPERCI-ITER   1: DE=    -0.000001060 <r|r>=      0.000005492
   SUPERCI-ITER   2: DE=    -0.000000006 <r|r>=      0.000000301
   SUPERCI-ITER   3: DE=    -0.000000001 
   <Psi(SX)|Psi(SX)>=      1.000000000 DE(SX)=-0.022221869
   Largest coefficient in the normalized |SX> wavefunction= 0.008718559
   --- Forming Natural Orbitals

MACRO-ITERATION   3: 
   --- Canonicalize Internal Space
   --- Canonicalize External Space
   --- Inactive Energy E0 = -1518.33823087 Eh
CI-ITERATION   0: 
 -1543.417308491   0.000000000000 (    0.00)
 -1543.411851180   0.000000000000
 -1543.405628390   0.000000000000
 -1543.387407400   0.000000000000
 -1543.383476731   0.000000000000
 -1543.363748330   0.000000000000
 -1543.360373125   0.000000000000
 -1543.324072169   0.000000000000
 -1543.310815771   0.000000000000
 -1543.295824898   0.000000000000
   CI-PROBLEM SOLVED
   DENSITIES MADE
CI-ITERATION   0: 
 -1543.354334287   0.000000000000 (    0.00)
 -1543.351339035   0.000000000000
 -1543.338439153   0.000000000000
 -1543.333805041   0.000000000000
 -1543.324567901   0.000000000000
 -1543.323292505   0.000000000000
 -1543.322595095   0.000000000000
 -1543.316675130   0.000000000000
 -1543.316549819   0.000000000000
 -1543.315857610   0.000000000000
 -1543.305406530   0.000000000000
 -1543.302512160   0.000000000000
 -1543.295463766   0.000000000000
 -1543.292512636   0.000000000000
 -1543.290525707   0.000000000000
 -1543.285792571   0.000000000000
 -1543.281509182   0.000000000000
 -1543.278961435   0.000000000000
 -1543.277066011   0.000000000000
 -1543.273483808   0.000000000000
 -1543.271586308   0.000000000000
 -1543.270540042   0.000000000000
 -1543.270253905   0.000000000000
 -1543.264548342   0.000000000000
 -1543.261585729   0.000000000000
 -1543.261098786   0.000000000000
 -1543.251575484   0.000000000000
 -1543.250129837   0.000000000000
 -1543.220628619   0.000000000000
 -1543.217818484   0.000000000000
 -1543.212605937   0.000000000000
 -1543.205277282   0.000000000000
 -1543.205121276   0.000000000000
 -1543.199956699   0.000000000000
 -1543.199222850   0.000000000000
 -1543.121151833   0.000000000000
 -1543.112454537   0.000000000000
 -1543.107414171   0.000000000000
 -1543.094663602   0.000000000000
 -1543.091296838   0.000000000000
   CI-PROBLEM SOLVED
   DENSITIES MADE
   E(CAS)= -1543.311395573 Eh DE=   -8.304302e-02
   --- Energy gap subspaces: Ext-Act = 0.500   Act-Int = 0.111
   --- current l-shift: Up(Ext-Act) = 0.83   Dn(Act-Int) = 1.22
   N(occ)=  1.40000 1.40000 1.40000 1.40000 1.40000
   ||g|| =     1.070049e+01 Max(G)=    9.652372e+00 Rot=193,0
   --- Option=FreezeIE: ||g|| =     10.645846127 
                              = 99.49% 
                        Damping (0.029) elements outside Int-Ext
   --- Orbital Update [   SuperCI]
   SUPERCI-ITER   0: DE=    -0.002021290 <r|r>=      0.000000904
   SUPERCI-ITER   1: DE=    -0.000000252 <r|r>=      0.000000003
   SUPERCI-ITER   2: DE=    -0.000000001 <r|r>=      0.000000049
   Warning: Orthogonalization failed (3e-17)! Terminating Iterations.
   <Psi(SX)|Psi(SX)>=      1.000000000 DE(SX)=-0.002021543
   Largest coefficient in the normalized |SX> wavefunction= 0.004967883
   --- Forming Natural Orbitals

MACRO-ITERATION   4: 
   --- Canonicalize Internal Space
   --- Canonicalize External Space
   --- Inactive Energy E0 = -1518.31286239 Eh
CI-ITERATION   0: 
 -1543.425562639   0.000000000000 (    0.00)
 -1543.420360374   0.000000000000
 -1543.414103031   0.000000000000
 -1543.396750469   0.000000000000
 -1543.392887902   0.000000000000
 -1543.373144277   0.000000000000
 -1543.369853637   0.000000000000
 -1543.333498814   0.000000000000
 -1543.319011234   0.000000000000
 -1543.304854794   0.000000000000
   CI-PROBLEM SOLVED
   DENSITIES MADE
CI-ITERATION   0: 
 -1543.362648188   0.000000000000 (    0.00)
 -1543.359723622   0.000000000000
 -1543.346720775   0.000000000000
 -1543.342166723   0.000000000000
 -1543.332836990   0.000000000000
 -1543.332001322   0.000000000000
 -1543.331192088   0.000000000000
 -1543.325211799   0.000000000000
 -1543.324765077   0.000000000000
 -1543.324123677   0.000000000000
 -1543.314559198   0.000000000000
 -1543.311376546   0.000000000000
 -1543.304214375   0.000000000000
 -1543.301478778   0.000000000000
 -1543.299226350   0.000000000000
 -1543.294578618   0.000000000000
 -1543.290035110   0.000000000000
 -1543.287720476   0.000000000000
 -1543.285710346   0.000000000000
 -1543.282593765   0.000000000000
 -1543.280773237   0.000000000000
 -1543.279631012   0.000000000000
 -1543.279477005   0.000000000000
 -1543.274185233   0.000000000000
 -1543.270189383   0.000000000000
 -1543.269782549   0.000000000000
 -1543.261802717   0.000000000000
 -1543.260650553   0.000000000000
 -1543.229217946   0.000000000000
 -1543.226216764   0.000000000000
 -1543.221421770   0.000000000000
 -1543.213767054   0.000000000000
 -1543.213611346   0.000000000000
 -1543.208851735   0.000000000000
 -1543.208483607   0.000000000000
 -1543.130375869   0.000000000000
 -1543.121149578   0.000000000000
 -1543.116217621   0.000000000000
 -1543.102776726   0.000000000000
 -1543.099521125   0.000000000000
   CI-PROBLEM SOLVED
   DENSITIES MADE
   E(CAS)= -1543.320263692 Eh DE=   -8.868118e-03
   --- Energy gap subspaces: Ext-Act = 0.499   Act-Int = 0.109
   --- current l-shift: Up(Ext-Act) = 0.50   Dn(Act-Int) = 0.89
   N(occ)=  1.40000 1.40000 1.40000 1.40000 1.40000
   ||g|| =     3.319815e+00 Max(G)=    2.852454e+00 Rot=193,0
   --- Orbital Update [   SuperCI]
   SUPERCI-ITER   0: DE=    -0.012753702 <r|r>=      0.000342624
   SUPERCI-ITER   1: DE=    -0.000031932 <r|r>=      0.000200411
   SUPERCI-ITER   2: DE=    -0.000004251 <r|r>=      0.000000234
   SUPERCI-ITER   3: DE=    -0.000000005 <r|r>=      0.000000000
   <Psi(SX)|Psi(SX)>=      1.000000000 DE(SX)=-0.012789891
   Largest coefficient in the normalized |SX> wavefunction= 0.159294869
   --- Forming Natural Orbitals

MACRO-ITERATION   5: 
   --- Canonicalize Internal Space
   --- Canonicalize External Space
   --- Inactive Energy E0 = -1517.54636228 Eh
CI-ITERATION   0: 
 -1543.450364604   0.000000000000 (    0.00)
 -1543.450159799   0.000000000000
 -1543.444088794   0.000000000000
 -1543.439257464   0.000000000000
 -1543.436767847   0.000000000000
 -1543.423309372   0.000000000000
 -1543.421788559   0.000000000000
 -1543.373560827   0.000000000000
 -1543.348407276   0.000000000000
 -1543.343391950   0.000000000000
   CI-PROBLEM SOLVED
   DENSITIES MADE
CI-ITERATION   0: 
 -1543.381188421   0.000000000000 (    0.01)
 -1543.379685866   0.000000000000
 -1543.367825827   0.000000000000
 -1543.367270933   0.000000000000
 -1543.364142624   0.000000000000
 -1543.363987630   0.000000000000
 -1543.359637144   0.000000000000
 -1543.351932395   0.000000000000
 -1543.350293801   0.000000000000
 -1543.350256043   0.000000000000
 -1543.349571186   0.000000000000
 -1543.346909456   0.000000000000
 -1543.334463417   0.000000000000
 -1543.334414686   0.000000000000
 -1543.333445641   0.000000000000
 -1543.332577634   0.000000000000
 -1543.326252765   0.000000000000
 -1543.324828673   0.000000000000
 -1543.324694295   0.000000000000
 -1543.323426139   0.000000000000
 -1543.322534785   0.000000000000
 -1543.322378699   0.000000000000
 -1543.319354246   0.000000000000
 -1543.315832373   0.000000000000
 -1543.315665084   0.000000000000
 -1543.312813257   0.000000000000
 -1543.305659699   0.000000000000
 -1543.305652674   0.000000000000
 -1543.257296672   0.000000000000
 -1543.254571611   0.000000000000
 -1543.251215524   0.000000000000
 -1543.245376948   0.000000000000
 -1543.244973279   0.000000000000
 -1543.241774558   0.000000000000
 -1543.241728834   0.000000000000
 -1543.159308915   0.000000000000
 -1543.148242948   0.000000000000
 -1543.146364314   0.000000000000
 -1543.123288306   0.000000000000
 -1543.121538581   0.000000000000
   CI-PROBLEM SOLVED
   DENSITIES MADE
   E(CAS)= -1543.355584523 Eh DE=   -3.532083e-02
   --- Energy gap subspaces: Ext-Act = 0.495   Act-Int = 0.138
   --- current l-shift: Up(Ext-Act) = 0.50   Dn(Act-Int) = 0.86
   N(occ)=  1.40000 1.40000 1.40000 1.40000 1.40000
   ||g|| =     1.138316e+00 Max(G)=   -8.733240e-01 Rot=193,0
   --- Orbital Update [   SuperCI]
   SUPERCI-ITER   0: DE=    -0.003627984 <r|r>=      0.000043646
   SUPERCI-ITER   1: DE=    -0.000006490 <r|r>=      0.000001279
   SUPERCI-ITER   2: DE=    -0.000000134 <r|r>=      0.000000065
   SUPERCI-ITER   3: DE=    -0.000000003 <r|r>=      0.000000000
   <Psi(SX)|Psi(SX)>=      1.000000000 DE(SX)=-0.003634611
   Largest coefficient in the normalized |SX> wavefunction= 0.091338990
   --- Forming Natural Orbitals

MACRO-ITERATION   6: 
   --- Canonicalize Internal Space
   --- Canonicalize External Space
   --- Inactive Energy E0 = -1517.23096217 Eh
CI-ITERATION   0: 
 -1543.461716673   0.000000000000 (    0.00)
 -1543.461301072   0.000000000000
 -1543.453256883   0.000000000000
 -1543.447327962   0.000000000000
 -1543.447092195   0.000000000000
 -1543.438073033   0.000000000000
 -1543.437329357   0.000000000000
 -1543.383739602   0.000000000000
 -1543.359958160   0.000000000000
 -1543.349671798   0.000000000000
   CI-PROBLEM SOLVED
   DENSITIES MADE
CI-ITERATION   0: 
 -1543.385603738   0.000000000000 (    0.01)
 -1543.384843140   0.000000000000
 -1543.377933140   0.000000000000
 -1543.376236878   0.000000000000
 -1543.372164758   0.000000000000
 -1543.370904757   0.000000000000
 -1543.370334103   0.000000000000
 -1543.359562453   0.000000000000
 -1543.359099080   0.000000000000
 -1543.358631671   0.000000000000
 -1543.358562982   0.000000000000
 -1543.357159679   0.000000000000
 -1543.344637702   0.000000000000
 -1543.343781198   0.000000000000
 -1543.343279766   0.000000000000
 -1543.342033723   0.000000000000
 -1543.339362172   0.000000000000
 -1543.335688153   0.000000000000
 -1543.334989426   0.000000000000
 -1543.334754658   0.000000000000
 -1543.332141353   0.000000000000
 -1543.331330878   0.000000000000
 -1543.327730735   0.000000000000
 -1543.325065092   0.000000000000
 -1543.322274752   0.000000000000
 -1543.321182950   0.000000000000
 -1543.315085878   0.000000000000
 -1543.315085714   0.000000000000
 -1543.264156577   0.000000000000
 -1543.262071863   0.000000000000
 -1543.257153251   0.000000000000
 -1543.252723964   0.000000000000
 -1543.251822135   0.000000000000
 -1543.248001940   0.000000000000
 -1543.247967339   0.000000000000
 -1543.162881259   0.000000000000
 -1543.155252327   0.000000000000
 -1543.150368006   0.000000000000
 -1543.126388359   0.000000000000
 -1543.125199983   0.000000000000
   CI-PROBLEM SOLVED
   DENSITIES MADE
   E(CAS)= -1543.365016431 Eh DE=   -9.431908e-03
   --- Energy gap subspaces: Ext-Act = 0.489   Act-Int = 0.136
   --- current l-shift: Up(Ext-Act) = 0.51   Dn(Act-Int) = 0.86
   N(occ)=  1.40000 1.40000 1.40000 1.40000 1.40000
   ||g|| =     4.559543e-01 Max(G)=   -3.045292e-01 Rot=21,0
   --- Orbital Update [   SuperCI]
   SUPERCI-ITER   0: DE=    -0.000666359 <r|r>=      0.000004777
   SUPERCI-ITER   1: DE=    -0.000001087 <r|r>=      0.000000497
   SUPERCI-ITER   2: DE=    -0.000000014 <r|r>=      0.000000005
   SUPERCI-ITER   3: DE=    -0.000000001 
   <Psi(SX)|Psi(SX)>=      1.000000000 DE(SX)=-0.000667461
   Largest coefficient in the normalized |SX> wavefunction= 0.035199462
   --- Forming Natural Orbitals

MACRO-ITERATION   7: 
   --- Canonicalize Internal Space
   --- Canonicalize External Space
   --- Inactive Energy E0 = -1517.12830736 Eh
CI-ITERATION   0: 
 -1543.464188209   0.000000000000 (    0.00)
 -1543.463939139   0.000000000000
 -1543.455471045   0.000000000000
 -1543.449503555   0.000000000000
 -1543.449130911   0.000000000000
 -1543.441139244   0.000000000000
 -1543.440732761   0.000000000000
 -1543.385739682   0.000000000000
 -1543.361947830   0.000000000000
 -1543.351110281   0.000000000000
   CI-PROBLEM SOLVED
   DENSITIES MADE
CI-ITERATION   0: 
 -1543.386358155   0.000000000000 (    0.00)
 -1543.385955226   0.000000000000
 -1543.379775183   0.000000000000
 -1543.377874567   0.000000000000
 -1543.373709510   0.000000000000
 -1543.372474178   0.000000000000
 -1543.372354050   0.000000000000
 -1543.360886349   0.000000000000
 -1543.360809620   0.000000000000
 -1543.360403691   0.000000000000
 -1543.360321957   0.000000000000
 -1543.358983749   0.000000000000
 -1543.346496863   0.000000000000
 -1543.345808027   0.000000000000
 -1543.345095829   0.000000000000
 -1543.343501208   0.000000000000
 -1543.341075470   0.000000000000
 -1543.337587748   0.000000000000
 -1543.336766630   0.000000000000
 -1543.336653145   0.000000000000
 -1543.333619739   0.000000000000
 -1543.332782187   0.000000000000
 -1543.329363684   0.000000000000
 -1543.326708751   0.000000000000
 -1543.323420570   0.000000000000
 -1543.322721198   0.000000000000
 -1543.316825406   0.000000000000
 -1543.316825224   0.000000000000
 -1543.264946307   0.000000000000
 -1543.262916229   0.000000000000
 -1543.258040242   0.000000000000
 -1543.253633563   0.000000000000
 -1543.252572622   0.000000000000
 -1543.248872350   0.000000000000
 -1543.248839996   0.000000000000
 -1543.162501164   0.000000000000
 -1543.155641661   0.000000000000
 -1543.150447863   0.000000000000
 -1543.126145320   0.000000000000
 -1543.125296552   0.000000000000
   CI-PROBLEM SOLVED
   DENSITIES MADE
   E(CAS)= -1543.366832780 Eh DE=   -1.816349e-03
   --- Energy gap subspaces: Ext-Act = 0.485   Act-Int = 0.137
   --- current l-shift: Up(Ext-Act) = 0.52   Dn(Act-Int) = 0.86
   N(occ)=  1.40000 1.40000 1.40000 1.40000 1.40000
   ||g|| =     2.269048e-01 Max(G)=   -1.913770e-01 Rot=21,0
   --- Orbital Update [   SuperCI]
   SUPERCI-ITER   0: DE=    -0.000123526 <r|r>=      0.000000497
   Warning: Orthogonalization failed (3e-14)! Terminating Iterations.
   <Psi(SX)|Psi(SX)>=      1.000000000 DE(SX)=-0.000123526
   Largest coefficient in the normalized |SX> wavefunction= 0.010899843
   --- Forming Natural Orbitals

MACRO-ITERATION   8: 
   --- Canonicalize Internal Space
   --- Canonicalize External Space
   --- Inactive Energy E0 = -1517.09138880 Eh
CI-ITERATION   0: 
 -1543.464734530   0.000000000000 (    0.00)
 -1543.464590243   0.000000000000
 -1543.456079493   0.000000000000
 -1543.450215387   0.000000000000
 -1543.449684964   0.000000000000
 -1543.441808455   0.000000000000
 -1543.441563378   0.000000000000
 -1543.386221063   0.000000000000
 -1543.362214131   0.000000000000
 -1543.351449935   0.000000000000
   CI-PROBLEM SOLVED
   DENSITIES MADE
CI-ITERATION   0: 
 -1543.386457186   0.000000000000 (    0.00)
 -1543.386237409   0.000000000000
 -1543.380071770   0.000000000000
 -1543.378128246   0.000000000000
 -1543.374004021   0.000000000000
 -1543.372868600   0.000000000000
 -1543.372728842   0.000000000000
 -1543.361134062   0.000000000000
 -1543.361116399   0.000000000000
 -1543.360792323   0.000000000000
 -1543.360718469   0.000000000000
 -1543.359303361   0.000000000000
 -1543.346841746   0.000000000000
 -1543.346165421   0.000000000000
 -1543.345488162   0.000000000000
 -1543.343810485   0.000000000000
 -1543.341450468   0.000000000000
 -1543.337893118   0.000000000000
 -1543.337153765   0.000000000000
 -1543.336925037   0.000000000000
 -1543.333879010   0.000000000000
 -1543.333043842   0.000000000000
 -1543.329725478   0.000000000000
 -1543.326972970   0.000000000000
 -1543.323603251   0.000000000000
 -1543.323044820   0.000000000000
 -1543.317103706   0.000000000000
 -1543.317103487   0.000000000000
 -1543.264912178   0.000000000000
 -1543.262879521   0.000000000000
 -1543.258095928   0.000000000000
 -1543.253645239   0.000000000000
 -1543.252562883   0.000000000000
 -1543.248911139   0.000000000000
 -1543.248877747   0.000000000000
 -1543.162143618   0.000000000000
 -1543.155331278   0.000000000000
 -1543.150258657   0.000000000000
 -1543.125739618   0.000000000000
 -1543.125080866   0.000000000000
   CI-PROBLEM SOLVED
   DENSITIES MADE
   E(CAS)= -1543.367205631 Eh DE=   -3.728504e-04
   --- Energy gap subspaces: Ext-Act = 0.483   Act-Int = 0.137
   --- current l-shift: Up(Ext-Act) = 0.52   Dn(Act-Int) = 0.86
   N(occ)=  1.40000 1.40000 1.40000 1.40000 1.40000
   ||g|| =     1.290930e-01 Max(G)=    1.180440e-01 Rot=21,0
   --- Orbital Update [   SuperCI]
   SUPERCI-ITER   0: DE=    -0.000031362 <r|r>=      0.000000075
   Warning: Orthogonalization failed (6e-14)! Terminating Iterations.
   <Psi(SX)|Psi(SX)>=      1.000000000 DE(SX)=-0.000031362
   Largest coefficient in the normalized |SX> wavefunction= 0.003363706
   --- Forming Natural Orbitals

MACRO-ITERATION   9: 
   --- Canonicalize Internal Space
   --- Canonicalize External Space
   --- Inactive Energy E0 = -1517.07565952 Eh
CI-ITERATION   0: 
 -1543.464909107   0.000000000000 (    0.00)
 -1543.464820542   0.000000000000
 -1543.456308825   0.000000000000
 -1543.450496581   0.000000000000
 -1543.449912976   0.000000000000
 -1543.441995363   0.000000000000
 -1543.441830462   0.000000000000
 -1543.386406984   0.000000000000
 -1543.362199847   0.000000000000
 -1543.351527739   0.000000000000
   CI-PROBLEM SOLVED
   DENSITIES MADE
CI-ITERATION   0: 
 -1543.386467781   0.000000000000 (    0.00)
 -1543.386344031   0.000000000000
 -1543.380132572   0.000000000000
 -1543.378174649   0.000000000000
 -1543.374068011   0.000000000000
 -1543.373003584   0.000000000000
 -1543.372840696   0.000000000000
 -1543.361205570   0.000000000000
 -1543.361195813   0.000000000000
 -1543.360916353   0.000000000000
 -1543.360847127   0.000000000000
 -1543.359380497   0.000000000000
 -1543.346954107   0.000000000000
 -1543.346279677   0.000000000000
 -1543.345628032   0.000000000000
 -1543.343910473   0.000000000000
 -1543.341589042   0.000000000000
 -1543.337953542   0.000000000000
 -1543.337262027   0.000000000000
 -1543.336988589   0.000000000000
 -1543.333932653   0.000000000000
 -1543.333098426   0.000000000000
 -1543.329842071   0.000000000000
 -1543.327012689   0.000000000000
 -1543.323615018   0.000000000000
 -1543.323146359   0.000000000000
 -1543.317111467   0.000000000000
 -1543.317111112   0.000000000000
 -1543.264827024   0.000000000000
 -1543.262787197   0.000000000000
 -1543.258044361   0.000000000000
 -1543.253582646   0.000000000000
 -1543.252490515   0.000000000000
 -1543.248849775   0.000000000000
 -1543.248814645   0.000000000000
 -1543.161987457   0.000000000000
 -1543.155085788   0.000000000000
 -1543.150135683   0.000000000000
 -1543.125455874   0.000000000000
 -1543.124907654   0.000000000000
   CI-PROBLEM SOLVED
   DENSITIES MADE
   E(CAS)= -1543.367307679 Eh DE=   -1.020481e-04
   --- Energy gap subspaces: Ext-Act = 0.483   Act-Int = 0.129
   --- current l-shift: Up(Ext-Act) = 0.52   Dn(Act-Int) = 0.87
   N(occ)=  1.40000 1.40000 1.40000 1.40000 1.40000
   ||g|| =     7.728758e-02 Max(G)=   -7.237235e-02 Rot=21,0
   --- Orbital Update [   SuperCI]
   SUPERCI-ITER   0: DE=    -0.000009975 <r|r>=      0.000000019
   Warning: Orthogonalization failed (1e-13)! Terminating Iterations.
   <Psi(SX)|Psi(SX)>=      1.000000000 DE(SX)=-0.000009975
   Largest coefficient in the normalized |SX> wavefunction= 0.001786443
   --- Forming Natural Orbitals

MACRO-ITERATION  10: 
   --- Canonicalize Internal Space
   --- Canonicalize External Space
   --- Inactive Energy E0 = -1517.06782935 Eh
CI-ITERATION   0: 
 -1543.464982273   0.000000000000 (    0.00)
 -1543.464923374   0.000000000000
 -1543.456413336   0.000000000000
 -1543.450625897   0.000000000000
 -1543.450020930   0.000000000000
 -1543.442050725   0.000000000000
 -1543.441927513   0.000000000000
 -1543.386503329   0.000000000000
 -1543.362144587   0.000000000000
 -1543.351531584   0.000000000000
   CI-PROBLEM SOLVED
   DENSITIES MADE
CI-ITERATION   0: 
 -1543.386470718   0.000000000000 (    0.00)
 -1543.386398682   0.000000000000
 -1543.380149979   0.000000000000
 -1543.378184630   0.000000000000
 -1543.374081453   0.000000000000
 -1543.373060874   0.000000000000
 -1543.372889933   0.000000000000
 -1543.361237940   0.000000000000
 -1543.361227815   0.000000000000
 -1543.360966955   0.000000000000
 -1543.360899878   0.000000000000
 -1543.359407640   0.000000000000
 -1543.347010016   0.000000000000
 -1543.346336374   0.000000000000
 -1543.345697297   0.000000000000
 -1543.343956150   0.000000000000
 -1543.341658300   0.000000000000
 -1543.337965379   0.000000000000
 -1543.337303605   0.000000000000
 -1543.337008060   0.000000000000
 -1543.333942344   0.000000000000
 -1543.333108652   0.000000000000
 -1543.329890846   0.000000000000
 -1543.327012380   0.000000000000
 -1543.323596659   0.000000000000
 -1543.323189379   0.000000000000
 -1543.317069297   0.000000000000
 -1543.317068922   0.000000000000
 -1543.264768291   0.000000000000
 -1543.262720623   0.000000000000
 -1543.257994301   0.000000000000
 -1543.253533164   0.000000000000
 -1543.252434657   0.000000000000
 -1543.248792809   0.000000000000
 -1543.248756222   0.000000000000
 -1543.161932440   0.000000000000
 -1543.154938560   0.000000000000
 -1543.150068373   0.000000000000
 -1543.125278767   0.000000000000
 -1543.124795579   0.000000000000
   CI-PROBLEM SOLVED
   DENSITIES MADE
   E(CAS)= -1543.367341227 Eh DE=   -3.354803e-05
   --- Energy gap subspaces: Ext-Act = 0.483   Act-Int = 0.129
   --- current l-shift: Up(Ext-Act) = 0.52   Dn(Act-Int) = 0.87
   N(occ)=  1.40000 1.40000 1.40000 1.40000 1.40000
   ||g|| =     4.701996e-02 Max(G)=    4.432522e-02 Rot=21,0
   --- Orbital Update [   SuperCI]
   SUPERCI-ITER   0: DE=    -0.000003595 <r|r>=      0.000000007
   Warning: Orthogonalization failed (1e-13)! Terminating Iterations.
   <Psi(SX)|Psi(SX)>=      1.000000000 DE(SX)=-0.000003595
   Largest coefficient in the normalized |SX> wavefunction= 0.001163824
   --- Forming Natural Orbitals

MACRO-ITERATION  11: 
   --- Canonicalize Internal Space
   --- Canonicalize External Space
   --- Inactive Energy E0 = -1517.06370269 Eh
CI-ITERATION   0: 
 -1543.465019776   0.000000000000 (    0.00)
 -1543.464976946   0.000000000000
 -1543.456467378   0.000000000000
 -1543.450691724   0.000000000000
 -1543.450077467   0.000000000000
 -1543.442066156   0.000000000000
 -1543.441965244   0.000000000000
 -1543.386560983   0.000000000000
 -1543.362094392   0.000000000000
 -1543.351515562   0.000000000000
   CI-PROBLEM SOLVED
   DENSITIES MADE
CI-ITERATION   0: 
 -1543.386473892   0.000000000000 (    0.00)
 -1543.386430257   0.000000000000
 -1543.380157221   0.000000000000
 -1543.378187384   0.000000000000
 -1543.374082630   0.000000000000
 -1543.373088505   0.000000000000
 -1543.372917424   0.000000000000
 -1543.361256888   0.000000000000
 -1543.361245167   0.000000000000
 -1543.360991258   0.000000000000
 -1543.360925144   0.000000000000
 -1543.359420956   0.000000000000
 -1543.347044509   0.000000000000
 -1543.346371405   0.000000000000
 -1543.345738123   0.000000000000
 -1543.343981705   0.000000000000
 -1543.341698621   0.000000000000
 -1543.337966508   0.000000000000
 -1543.337324610   0.000000000000
 -1543.337015303   0.000000000000
 -1543.333941842   0.000000000000
 -1543.333108770   0.000000000000
 -1543.329915319   0.000000000000
 -1543.327005825   0.000000000000
 -1543.323576077   0.000000000000
 -1543.323211520   0.000000000000
 -1543.317025289   0.000000000000
 -1543.317024931   0.000000000000
 -1543.264731574   0.000000000000
 -1543.262677019   0.000000000000
 -1543.257956991   0.000000000000
 -1543.253499657   0.000000000000
 -1543.252396982   0.000000000000
 -1543.248750477   0.000000000000
 -1543.248712858   0.000000000000
 -1543.161917835   0.000000000000
 -1543.154852087   0.000000000000
 -1543.150029615   0.000000000000
 -1543.125167311   0.000000000000
 -1543.124722531   0.000000000000
   CI-PROBLEM SOLVED
   DENSITIES MADE
   E(CAS)= -1543.367353557 Eh DE=   -1.232992e-05
   --- Energy gap subspaces: Ext-Act = 0.482   Act-Int = 0.129
   --- current l-shift: Up(Ext-Act) = 0.52   Dn(Act-Int) = 0.87
   N(occ)=  1.40000 1.40000 1.40000 1.40000 1.40000
   ||g|| =     2.878141e-02 Max(G)=    2.716238e-02 Rot=21,0
   --- Orbital Update [   SuperCI]
   SUPERCI-ITER   0: DE=    -0.000001398 <r|r>=      0.000000003
   Warning: Orthogonalization failed (2e-13)! Terminating Iterations.
   <Psi(SX)|Psi(SX)>=      1.000000000 DE(SX)=-0.000001398
   Largest coefficient in the normalized |SX> wavefunction= 0.000772148
   --- Forming Natural Orbitals

MACRO-ITERATION  12: 
   ===>>> Convergence to 3.0e-02 achieved - switching to Step=DIIS
   --- Inactive Energy E0 = -1517.06141516 Eh
CI-ITERATION   0: 
 -1543.465041673   0.000000000000 (    0.00)
 -1543.465007735   0.000000000000
 -1543.456497772   0.000000000000
 -1543.450727479   0.000000000000
 -1543.450109012   0.000000000000
 -1543.442068247   0.000000000000
 -1543.441979592   0.000000000000
 -1543.386598042   0.000000000000
 -1543.362056337   0.000000000000
 -1543.351496502   0.000000000000
   CI-PROBLEM SOLVED
   DENSITIES MADE
CI-ITERATION   0: 
 -1543.386477929   0.000000000000 (    0.00)
 -1543.386450179   0.000000000000
 -1543.380161759   0.000000000000
 -1543.378188914   0.000000000000
 -1543.374081235   0.000000000000
 -1543.373103091   0.000000000000
 -1543.372934870   0.000000000000
 -1543.361269627   0.000000000000
 -1543.361256524   0.000000000000
 -1543.361004273   0.000000000000
 -1543.360938587   0.000000000000
 -1543.359429214   0.000000000000
 -1543.347067708   0.000000000000
 -1543.346394828   0.000000000000
 -1543.345764214   0.000000000000
 -1543.343997704   0.000000000000
 -1543.341723971   0.000000000000
 -1543.337965488   0.000000000000
 -1543.337337173   0.000000000000
 -1543.337018396   0.000000000000
 -1543.333939497   0.000000000000
 -1543.333107069   0.000000000000
 -1543.329929031   0.000000000000
 -1543.326999989   0.000000000000
 -1543.323559354   0.000000000000
 -1543.323224399   0.000000000000
 -1543.316989577   0.000000000000
 -1543.316989240   0.000000000000
 -1543.264709246   0.000000000000
 -1543.262649113   0.000000000000
 -1543.257931031   0.000000000000
 -1543.253477776   0.000000000000
 -1543.252372407   0.000000000000
 -1543.248720843   0.000000000000
 -1543.248682547   0.000000000000
 -1543.161918959   0.000000000000
 -1543.154801277   0.000000000000
 -1543.150006482   0.000000000000
 -1543.125096708   0.000000000000
 -1543.124674611   0.000000000000
   CI-PROBLEM SOLVED
   DENSITIES MADE
   E(CAS)= -1543.367358430 Eh DE=   -4.873434e-06
   --- Energy gap subspaces: Ext-Act = 0.482   Act-Int = 0.129
   --- current l-shift: Up(Ext-Act) = 0.52   Dn(Act-Int) = 0.87
   N(occ)=  1.40000 1.40000 1.40000 1.40000 1.40000
   ||g|| =     1.766645e-02 Max(G)=   -1.665647e-02 Rot=21,0
   --- Orbital Update [      DIIS]
   --- SFit(Active Orbitals)

MACRO-ITERATION  13: 
   --- Inactive Energy E0 = -1517.05865424 Eh
CI-ITERATION   0: 
 -1543.465066462   0.000000000000 (    0.00)
 -1543.465047291   0.000000000000
 -1543.456536705   0.000000000000
 -1543.450774638   0.000000000000
 -1543.450151606   0.000000000000
 -1543.442060509   0.000000000000
 -1543.441991229   0.000000000000
 -1543.386654911   0.000000000000
 -1543.361986213   0.000000000000
 -1543.351457562   0.000000000000
   CI-PROBLEM SOLVED
   DENSITIES MADE
CI-ITERATION   0: 
 -1543.386476776   0.000000000000 (    0.00)
 -1543.386475185   0.000000000000
 -1543.380162118   0.000000000000
 -1543.378186380   0.000000000000
 -1543.374073081   0.000000000000
 -1543.373122077   0.000000000000
 -1543.372960211   0.000000000000
 -1543.361288309   0.000000000000
 -1543.361268105   0.000000000000
 -1543.361025603   0.000000000000
 -1543.360960392   0.000000000000
 -1543.359439895   0.000000000000
 -1543.347106658   0.000000000000
 -1543.346438854   0.000000000000
 -1543.345807004   0.000000000000
[...]
 3 106   47667.4    209.8   0.00000   0.00001   0.00000   0.00000000000037   0.00000   0.98037   0.01963
 3 107   47667.4    209.8   0.00000   0.00083   0.00000   0.00000000004044   0.00000   0.99985   0.00015
 3 108   47993.7    208.4   0.00000   0.00000   0.00000   0.00000000000000   0.00025   0.00253   0.99722
 3 109   47993.7    208.4   0.00000   0.00000   0.00000   0.00000000000001   0.00017   0.69142   0.30841
 3 110   66858.4    149.6   0.00000   0.00000   0.00000   0.00000000000004   0.00003   0.76796   0.23201
 3 111   66858.4    149.6   0.00000   0.00000   0.00000   0.00000000000011   0.00002   0.92590   0.07408
 3 112   68406.4    146.2   0.00000   0.00000   0.00000   0.00000000000012   0.00000   0.87947   0.12053
 3 113   68406.4    146.2   0.00000   0.00000   0.00000   0.00000000000013   0.00000   0.91175   0.08825
 3 114   69534.8    143.8   0.00000   0.00000   0.00000   0.00000000000007   0.00000   0.54136   0.45864
 3 115   69534.8    143.8   0.00000   0.00000   0.00000   0.00000000000008   0.00001   0.59316   0.40683
 3 116   74755.6    133.8   0.00000   0.00000   0.00000   0.00000000000002   0.00001   0.02995   0.97004
 3 117   74755.6    133.8   0.00000   0.00000   0.00000   0.00000000000005   0.00005   0.25047   0.74948
 3 118   75279.5    132.8   0.00000   0.00003   0.00000   0.00000000000153   0.00000   0.99516   0.00484
 3 119   75279.5    132.8   0.00000   0.00000   0.00000   0.00000000000016   0.00000   0.89210   0.10790

Done

                 =============================
                 AB INITIO LIGAND FIELD THEORY
                       d7 configuration
                          2 CI blocks
                         MOs 19 to 23
                 =============================

Metal/Atom center is atom 0
orbital phases =   1.0   1.0   1.0   1.0   1.0 
Metal/Atom d-orbital parts of active orbitals
Shell 15
             19        20        21        22        23
dz2     :  0.614505  0.000001 -0.000044 -0.002069 -0.000021
dxz     :  0.000039  0.620369  0.000012  0.000010 -0.000416
dyz     : -0.000326  0.000026  0.616356  0.000068  0.000000
dx2y2   :  0.009709 -0.000048  0.000640  0.608461  0.000022
dxy     :  0.000092 -0.001122  0.000003 -0.000204  0.617824
Shell 16
             19        20        21        22        23
dz2     :  0.412935 -0.000004  0.000079 -0.000171 -0.000002
dxz     :  0.000023  0.414757 -0.000007  0.000005 -0.000264
dyz     : -0.000182  0.000003  0.415067  0.000006 -0.000004
dx2y2   :  0.007965 -0.000034  0.000269  0.407777  0.000024
dxy     :  0.000076 -0.000736 -0.000003 -0.000127  0.413102
Shell 17
             19        20        21        22        23
dz2     :  0.209415  0.000004 -0.000139  0.006385  0.000070
dxz     :  0.000015  0.208927 -0.000022 -0.000047  0.002870
dyz     :  0.000057 -0.000018  0.213873 -0.000436  0.000015
dx2y2   :  0.009335 -0.000066  0.000283  0.200304 -0.000138
dxy     :  0.000096  0.002626  0.000021 -0.000215  0.218021
Shell 20
             19        20        21        22        23
dz2     : -0.003033  0.000041  0.000182  0.018702  0.000189
dxz     :  0.000037  0.004212 -0.000015 -0.000095  0.002011
dyz     :  0.000628 -0.000017  0.007811 -0.000816  0.000006
dx2y2   :  0.016930 -0.000094 -0.000011 -0.021933 -0.000324
dxy     :  0.000168  0.002001  0.000014 -0.000321  0.010856

Adjusting phases of one-electron integrals               ... done
Adjusting phases of two-electron integrals               ... done


-----------------------------------------------------------------
Computing F0s from 2-electron integrals                  ... done 
-----------------------------------------------------------------
F0   =  0.902741016 a.u. =    24.565 eV =  198128.8 cm**-1
-----------------------------------------------------------------

Preparing for fit                                        ... done
Making fit matrices                                      ... done
Calculating ab initio Hamiltonian matrices               ... 
Calculating fit matrices                                 ... done
Fitting                                                  ... done

------------------------------
AILFT MATRIX ELEMENTS (CASSCF)
--------------------------------

Ligand field one-electron matrix VLFT (a.u.) : 
Orbital          dz2        dxz        dyz        dx2-y2     dxy
  dz2         -6.402952  -0.000000  -0.000410  -0.016960  -0.000173 
  dxz         -0.000000  -6.394348   0.000089   0.000076  -0.002859 
  dyz         -0.000410   0.000089  -6.413304   0.000751   0.000007 
  dx2-y2      -0.016960   0.000076   0.000751  -6.385749   0.000181 
  dxy         -0.000173  -0.002859   0.000007   0.000181  -6.403822 

-------------------------------------------------
Slater-Condon Parameters (electronic repulsion) : 
-------------------------------------------------
F0dd(from 2el Ints)     =  0.902741016 a.u. =    24.565 eV =  198128.8 cm**-1 (fixed)
F2dd                    =  0.411277340 a.u. =    11.191 eV =   90264.9 cm**-1
F4dd                    =  0.258731532 a.u. =     7.040 eV =   56785.0 cm**-1
-------------------
Racah Parameters : 
-------------------
A(F0dd from 2el Ints)   =  0.873993069 a.u. =    23.783 eV =  191819.3 cm**-1
B                       =  0.005459951 a.u. =     0.149 eV =    1198.3 cm**-1
C                       =  0.020534249 a.u. =     0.559 eV =    4506.7 cm**-1
C/B                     =  3.761
-------------------------------------------------------------------------------

-----------------------------------------
The ligand field one electron eigenfunctions:
-----------------------------------------
Orbital    Energy (eV)  Energy(cm-1)      dz2        dxz        dyz        dx2-y2     dxy
    1          0.000        0.0         0.719469   0.001425  -0.524189   0.455589   0.005192 
    2          0.003       21.3        -0.456826   0.004845  -0.851290  -0.258051  -0.001377 
    3          0.239     1925.8         0.000646   0.268212   0.002605  -0.009841   0.963306 
    4          0.540     4355.1         0.002282   0.963344   0.004279   0.001362  -0.268222 
    5          1.036     8358.0        -0.523135   0.002264   0.022489   0.851909   0.008363 
Ligand field orbitals were stored in rho.casscf.lft.gbw

Calculating ligand field Hamiltonian matrices          ... done
Diagonalizing and fitting the ligand field Hamiltonian ... done
Calculating statistical parameters                     ... done

Reference energy AI-LFT =    -26.407682616 au
Reference energy AI     =    -26.407014458 au

------------------------------------------------
COMPARISON OF AB INITIO AND LIGAND FIELD RESULTS
------------------------------------------------

Block   1
---------
   AI-Root   0: E(AI)=    0.000 eV -> LF-Root   0:     0.000 eV    S= 0.967 Delta=    0.000 eV
   AI-Root   1: E(AI)=    0.001 eV -> LF-Root   1:     0.002 eV    S= 0.967 Delta=   -0.001 eV
   AI-Root   2: E(AI)=    0.232 eV -> LF-Root   2:     0.224 eV    S= 1.000 Delta=    0.009 eV
   AI-Root   3: E(AI)=    0.389 eV -> LF-Root   3:     0.386 eV    S= 0.993 Delta=    0.003 eV
   AI-Root   4: E(AI)=    0.406 eV -> LF-Root   4:     0.409 eV    S= 0.993 Delta=   -0.003 eV
   AI-Root   5: E(AI)=    0.627 eV -> LF-Root   5:     0.690 eV    S= 0.997 Delta=   -0.063 eV
   AI-Root   6: E(AI)=    0.629 eV -> LF-Root   6:     0.692 eV    S= 0.997 Delta=   -0.063 eV
   AI-Root   7: E(AI)=    2.134 eV -> LF-Root   7:     2.095 eV    S= 1.000 Delta=    0.039 eV
   AI-Root   8: E(AI)=    2.806 eV -> LF-Root   8:     2.860 eV    S= 1.000 Delta=   -0.054 eV
   AI-Root   9: E(AI)=    3.093 eV -> LF-Root   9:     3.137 eV    S= 1.000 Delta=   -0.044 eV
   (Dropping RMS error for the reference energy)
   RMS error for this block =     0.040 eV =     323.2 cm**-1 

Block   2
---------
   AI-Root   0: E(AI)=    2.139 eV -> LF-Root   0:     2.168 eV    S= 0.848 Delta=   -0.030 eV
   AI-Root   1: E(AI)=    2.139 eV -> LF-Root   1:     2.169 eV    S= 0.848 Delta=   -0.030 eV
   AI-Root   2: E(AI)=    2.311 eV -> LF-Root   2:     2.333 eV    S= 0.996 Delta=   -0.022 eV
   AI-Root   3: E(AI)=    2.364 eV -> LF-Root   3:     2.394 eV    S= 0.989 Delta=   -0.030 eV
   AI-Root   4: E(AI)=    2.477 eV -> LF-Root   4:     2.530 eV    S= 0.995 Delta=   -0.053 eV
   AI-Root   5: E(AI)=    2.502 eV -> LF-Root   5:     2.545 eV    S= 0.987 Delta=   -0.042 eV
   AI-Root   6: E(AI)=    2.506 eV -> LF-Root   6:     2.502 eV    S= 1.000 Delta=    0.005 eV
   AI-Root   7: E(AI)=    2.824 eV -> LF-Root   7:     2.868 eV    S= 0.986 Delta=   -0.044 eV
   AI-Root   8: E(AI)=    2.825 eV -> LF-Root   8:     2.847 eV    S= 0.987 Delta=   -0.023 eV
   AI-Root   9: E(AI)=    2.832 eV -> LF-Root   9:     2.824 eV    S= 0.995 Delta=    0.008 eV
   AI-Root  10: E(AI)=    2.833 eV -> LF-Root  10:     2.826 eV    S= 0.996 Delta=    0.008 eV
   AI-Root  11: E(AI)=    2.875 eV -> LF-Root  11:     2.931 eV    S= 0.998 Delta=   -0.056 eV
   AI-Root  12: E(AI)=    3.210 eV -> LF-Root  12:     3.206 eV    S= 0.999 Delta=    0.004 eV
   AI-Root  13: E(AI)=    3.228 eV -> LF-Root  13:     3.226 eV    S= 0.996 Delta=    0.003 eV
   AI-Root  14: E(AI)=    3.245 eV -> LF-Root  14:     3.243 eV    S= 0.998 Delta=    0.002 eV
   AI-Root  15: E(AI)=    3.294 eV -> LF-Root  15:     3.281 eV    S= 0.998 Delta=    0.014 eV
   AI-Root  16: E(AI)=    3.355 eV -> LF-Root  16:     3.343 eV    S= 0.997 Delta=    0.012 eV
   AI-Root  17: E(AI)=    3.459 eV -> LF-Root  17:     3.488 eV    S= 0.995 Delta=   -0.029 eV
   AI-Root  18: E(AI)=    3.475 eV -> LF-Root  18:     3.485 eV    S= 0.996 Delta=   -0.009 eV
   AI-Root  19: E(AI)=    3.485 eV -> LF-Root  19:     3.510 eV    S= 0.994 Delta=   -0.025 eV
   AI-Root  20: E(AI)=    3.569 eV -> LF-Root  20:     3.583 eV    S= 0.994 Delta=   -0.014 eV
   AI-Root  21: E(AI)=    3.591 eV -> LF-Root  21:     3.612 eV    S= 0.994 Delta=   -0.021 eV
   AI-Root  22: E(AI)=    3.677 eV -> LF-Root  22:     3.680 eV    S= 0.994 Delta=   -0.003 eV
   AI-Root  23: E(AI)=    3.758 eV -> LF-Root  23:     3.791 eV    S= 0.998 Delta=   -0.033 eV
   AI-Root  24: E(AI)=    3.852 eV -> LF-Root  24:     3.892 eV    S= 1.000 Delta=   -0.040 eV
   AI-Root  25: E(AI)=    3.860 eV -> LF-Root  25:     3.847 eV    S= 0.999 Delta=    0.013 eV
   AI-Root  26: E(AI)=    4.032 eV -> LF-Root  26:     4.085 eV    S= 0.952 Delta=   -0.053 eV
   AI-Root  27: E(AI)=    4.032 eV -> LF-Root  27:     4.085 eV    S= 0.952 Delta=   -0.053 eV
   AI-Root  28: E(AI)=    5.454 eV -> LF-Root  28:     5.477 eV    S= 1.000 Delta=   -0.024 eV
   AI-Root  29: E(AI)=    5.510 eV -> LF-Root  29:     5.539 eV    S= 1.000 Delta=   -0.029 eV
   AI-Root  30: E(AI)=    5.639 eV -> LF-Root  30:     5.673 eV    S= 1.000 Delta=   -0.035 eV
   AI-Root  31: E(AI)=    5.759 eV -> LF-Root  31:     5.776 eV    S= 1.000 Delta=   -0.017 eV
   AI-Root  32: E(AI)=    5.790 eV -> LF-Root  32:     5.809 eV    S= 1.000 Delta=   -0.019 eV
   AI-Root  33: E(AI)=    5.889 eV -> LF-Root  33:     5.916 eV    S= 0.996 Delta=   -0.027 eV
   AI-Root  34: E(AI)=    5.890 eV -> LF-Root  34:     5.917 eV    S= 0.996 Delta=   -0.027 eV
   AI-Root  35: E(AI)=    8.249 eV -> LF-Root  35:     8.207 eV    S= 1.000 Delta=    0.042 eV
   AI-Root  36: E(AI)=    8.445 eV -> LF-Root  36:     8.476 eV    S= 1.000 Delta=   -0.031 eV
   AI-Root  37: E(AI)=    8.575 eV -> LF-Root  37:     8.610 eV    S= 1.000 Delta=   -0.035 eV
   AI-Root  38: E(AI)=    9.255 eV -> LF-Root  38:     9.251 eV    S= 0.999 Delta=    0.004 eV
   AI-Root  39: E(AI)=    9.266 eV -> LF-Root  39:     9.259 eV    S= 0.999 Delta=    0.006 eV
   RMS error for this block =     0.029 eV =     232.0 cm**-1 

Total RMS error g=     0.031 eV =     251.2 cm**-1
Note: Dropped RMS error for the reference energy.

Confidence intervals (95%) computed from the square root of the
diagonal elements of the covariance matrix:
H(dz2   ,dz2   )=  0.000162192 a.u. =     0.004 eV =      35.6 cm**-1
H(dxz   ,dz2   )=  0.000137217 a.u. =     0.004 eV =      30.1 cm**-1
H(dxz   ,dxz   )=  0.000162192 a.u. =     0.004 eV =      35.6 cm**-1
H(dyz   ,dz2   )=  0.000137217 a.u. =     0.004 eV =      30.1 cm**-1
H(dyz   ,dxz   )=  0.000137217 a.u. =     0.004 eV =      30.1 cm**-1
H(dyz   ,dyz   )=  0.000162192 a.u. =     0.004 eV =      35.6 cm**-1
H(dx2-y2,dz2   )=  0.000137217 a.u. =     0.004 eV =      30.1 cm**-1
H(dx2-y2,dxz   )=  0.000137217 a.u. =     0.004 eV =      30.1 cm**-1
H(dx2-y2,dyz   )=  0.000137217 a.u. =     0.004 eV =      30.1 cm**-1
H(dx2-y2,dx2-y2)=  0.000162192 a.u. =     0.004 eV =      35.6 cm**-1
H(dxy   ,dz2   )=  0.000137217 a.u. =     0.004 eV =      30.1 cm**-1
H(dxy   ,dxz   )=  0.000137217 a.u. =     0.004 eV =      30.1 cm**-1
H(dxy   ,dyz   )=  0.000137217 a.u. =     0.004 eV =      30.1 cm**-1
H(dxy   ,dx2-y2)=  0.000137217 a.u. =     0.004 eV =      30.1 cm**-1
H(dxy   ,dxy   )=  0.000162192 a.u. =     0.004 eV =      35.6 cm**-1
F2dd            =  0.000582461 a.u. =     0.016 eV =     127.8 cm**-1
F4dd            =  0.000844776 a.u. =     0.023 eV =     185.4 cm**-1
Pearson's correlation coefficient =    1.000 (should be close to 1)

----------------------------------------------
SPIN ORBIT COUPLING (based on CASSCF orbitals)
----------------------------------------------

AI-SOC-X integrals (cm-1)
                  0          1          2          3          4    
      0       0.000000  -0.047396 903.056951   0.302617   0.038099
      1       0.047396   0.000000  -0.036054  -0.217500 523.323207
      2     -903.056951   0.036054  -0.000000 -508.698500   0.026904
      3      -0.302617   0.217500 508.698500   0.000000   0.002994
      4      -0.038099 -523.323207  -0.026904  -0.002994  -0.000000
AI-SOC-Y integrals (cm-1)
                  0          1          2          3          4    
      0       0.000000 -890.826528   0.067463  -0.037521   0.583536
      1     890.826528  -0.000000  -1.488589 -514.067676  -0.027177
      2      -0.067463   1.488589  -0.000000   0.185299 -520.108857
      3       0.037521 514.067676  -0.185299  -0.000000  -0.023608
      4      -0.583536   0.027177 520.108857   0.023608   0.000000
AI-SOC-Z integrals (cm-1)
                  0          1          2          3          4    
      0       0.000000  -0.065687  -0.035760   0.176349 -18.214882
      1       0.065687  -0.000000 -522.038424  -1.472756   0.093653
      2       0.035760 522.038424   0.000000   0.011940  -1.371925
      3      -0.176349   1.472756  -0.011940   0.000000 -1023.634194
      4      18.214882  -0.093653   1.371925 1023.634194   0.000000

Fit to the SOC matrix elements
a = 15.000000
b =     0.960 eV =    7742.6 cm**-1
SOC constant zeta =     0.064 eV =     516.2 cm**-1


LF-SOC-X integrals (cm-1)
                  0          1          2          3          4    
      0       0.000000  -0.000000 894.038714  -0.000000  -0.000000
      1       0.000000   0.000000  -0.000000  -0.000000 516.173492
      2     -894.038714   0.000000   0.000000 -516.173492  -0.000000
      3       0.000000   0.000000 516.173492   0.000000  -0.000000
      4       0.000000 -516.173492   0.000000   0.000000   0.000000
LF-SOC-Y integrals (cm-1)
                  0          1          2          3          4    
      0       0.000000 -894.038714  -0.000000  -0.000000  -0.000000
      1     894.038714   0.000000  -0.000000 -516.173492  -0.000000
      2       0.000000   0.000000   0.000000  -0.000000 -516.173492
      3       0.000000 516.173492   0.000000   0.000000  -0.000000
      4       0.000000   0.000000 516.173492   0.000000   0.000000
LF-SOC-Z integrals (cm-1)
                  0          1          2          3          4    
      0       0.000000  -0.000000  -0.000000  -0.000000  -0.000000
      1       0.000000   0.000000 -516.173492  -0.000000  -0.000000
      2       0.000000 516.173492   0.000000  -0.000000  -0.000000
      3       0.000000   0.000000   0.000000   0.000000 -1032.346984
      4       0.000000   0.000000   0.000000 1032.346984   0.000000

RMS error of nonzero matrix elements =    6.3 cm**-1


-----SOC-CONSTANTS-----
---All Values in cm-1---
ZETA_D = 516.17 
------------------------




---AILFT COMPLETED SUCCESFULLY!---

--------------
CASSCF TIMINGS
--------------

Total time                       ...       36.3 sec
Sum of individual times          ...       35.8 sec ( 98.5%)

Calculation of AO operators
   F(Core) operator              ...       11.6 sec ( 32.0%)
   G(Act) operator               ...       11.2 sec ( 30.7%)
   J(AO) operators               ...        0.0 sec (  0.0%)
Calculation of MO transformed quantities
   J(MO) operators               ...        1.8 sec (  5.0%)
   (pq|rs) integrals             ...        0.0 sec (  0.0%)
   AO->MO one electron integrals ...        0.1 sec (  0.2%)
Configuration interaction steps
   CI-setup phase                ...        0.0 sec (  0.0%)
   CI-solution phase             ...        0.6 sec (  1.7%)
   Generation of densities       ...        0.1 sec (  0.2%)
Orbital improvement steps
   Orbital gradient              ...        0.0 sec (  0.1%)
   O(1) converger                ...        0.2 sec (  0.7%)
Properties                       ...        6.7 sec ( 18.4%)
   SOC integral calculation      ...        3.4 sec (  9.5%)
   SSC RMEs (incl. integrals)    ...        0.0 sec (  0.0%)
   SOC RMEs                      ...        0.0 sec (  0.1%)

Maximum memory used throughout the entire CASSCF-calculation: 231.8 MB

-------------------------   --------------------
FINAL SINGLE POINT ENERGY     -1543.367362022885
-------------------------   --------------------


                            ***************************************
                            *     ORCA property calculations      *
                            ***************************************

                                    ---------------------
                                    Active property flags
                                    ---------------------
   (+) Dipole Moment


------------------------------------------------------------------------------
                       ORCA ELECTRIC PROPERTIES CALCULATION
------------------------------------------------------------------------------

Dipole Moment Calculation                       ... on
Quadrupole Moment Calculation                   ... off
Polarizability Calculation                      ... off
GBWName                                         ... rho.gbw
Electron density                                ... rho.scfp
The origin for moment calculation is the CENTER OF MASS  = ( 0.000000, -0.000035  0.000120)

-------------
DIPOLE MOMENT
-------------
                                X             Y             Z
Electronic contribution:      0.00000      -0.00014       0.00047
Nuclear contribution   :     -0.00000       0.00015      -0.00052
                        -----------------------------------------
Total Dipole Moment    :      0.00000       0.00002      -0.00005
                        -----------------------------------------
Magnitude (a.u.)       :      0.00006
Magnitude (Debye)      :      0.00014



--------------------
Rotational spectrum 
--------------------
 
Rotational constants in cm-1:     6.560732     0.122431     0.120188 
Rotational constants in MHz : 196685.783080  3670.395608  3603.156348 

 Dipole components along the rotational axes: 
x,y,z [a.u.] :     0.000000     0.000002    -0.000056 
x,y,z [Debye]:     0.000000     0.000004    -0.000142 

 

Timings for individual modules:

Sum of individual times         ...       55.722 sec (=   0.929 min)
GTO integral calculation        ...        3.170 sec (=   0.053 min)   5.7 %
Relativistic integrals          ...        3.589 sec (=   0.060 min)   6.4 %
SCF iterations                  ...        4.457 sec (=   0.074 min)   8.0 %
CASSCF iterations               ...       44.506 sec (=   0.742 min)  79.9 %
                             ****ORCA TERMINATED NORMALLY****
TOTAL RUN TIME: 0 days 0 hours 0 minutes 59 seconds 244 msec
