
                                 *****************
                                 * O   R   C   A *
                                 *****************

                                            #,                                       
                                            ###                                      
                                            ####                                     
                                            #####                                    
                                            ######                                   
                                           ########,                                 
                                     ,,################,,,,,                         
                               ,,#################################,,                 
                          ,,##########################################,,             
                       ,#########################################, ''#####,          
                    ,#############################################,,   '####,        
                  ,##################################################,,,,####,       
                ,###########''''           ''''###############################       
              ,#####''   ,,,,##########,,,,          '''####'''          '####       
            ,##' ,,,,###########################,,,                        '##       
           ' ,,###''''                  '''############,,,                           
         ,,##''                                '''############,,,,        ,,,,,,###''
      ,#''                                            '''#######################'''  
     '                                                          ''''####''''         
             ,#######,   #######,   ,#######,      ##                                
            ,#'     '#,  ##    ##  ,#'     '#,    #''#        ######   ,####,        
            ##       ##  ##   ,#'  ##            #'  '#       #        #'  '#        
            ##       ##  #######   ##           ,######,      #####,   #    #        
            '#,     ,#'  ##    ##  '#,     ,#' ,#      #,         ##   #,  ,#        
             '#######'   ##     ##  '#######'  #'      '#     #####' # '####'        



                  #######################################################
                  #                        -***-                        #
                  #          Department of theory and spectroscopy      #
                  #    Directorship and core code : Frank Neese         #
                  #        Max Planck Institute fuer Kohlenforschung    #
                  #                Kaiser Wilhelm Platz 1               #
                  #                 D-45470 Muelheim/Ruhr               #
                  #                      Germany                        #
                  #                                                     #
                  #                  All rights reserved                #
                  #                        -***-                        #
                  #######################################################


                         Program Version 5.0.4 -  RELEASE  -


 With contributions from (in alphabetic order):
   Daniel Aravena         : Magnetic Suceptibility
   Michael Atanasov       : Ab Initio Ligand Field Theory (pilot matlab implementation)
   Alexander A. Auer      : GIAO ZORA, VPT2 properties, NMR spectrum
   Ute Becker             : Parallelization
   Giovanni Bistoni       : ED, misc. LED, open-shell LED, HFLD
   Martin Brehm           : Molecular dynamics
   Dmytro Bykov           : SCF Hessian
   Vijay G. Chilkuri      : MRCI spin determinant printing, contributions to CSF-ICE
   Dipayan Datta          : RHF DLPNO-CCSD density
   Achintya Kumar Dutta   : EOM-CC, STEOM-CC
   Dmitry Ganyushin       : Spin-Orbit,Spin-Spin,Magnetic field MRCI
   Miquel Garcia          : C-PCM and meta-GGA Hessian, CC/C-PCM, Gaussian charge scheme
   Yang Guo               : DLPNO-NEVPT2, F12-NEVPT2, CIM, IAO-localization
   Andreas Hansen         : Spin unrestricted coupled pair/coupled cluster methods
   Benjamin Helmich-Paris : MC-RPA, TRAH-SCF, COSX integrals
   Lee Huntington         : MR-EOM, pCC
   Robert Izsak           : Overlap fitted RIJCOSX, COSX-SCS-MP3, EOM
   Marcus Kettner         : VPT2
   Christian Kollmar      : KDIIS, OOCD, Brueckner-CCSD(T), CCSD density, CASPT2, CASPT2-K
   Simone Kossmann        : Meta GGA functionals, TD-DFT gradient, OOMP2, MP2 Hessian
   Martin Krupicka        : Initial AUTO-CI
   Lucas Lang             : DCDCAS
   Marvin Lechner         : AUTO-CI (C++ implementation), FIC-MRCC
   Dagmar Lenk            : GEPOL surface, SMD
   Dimitrios Liakos       : Extrapolation schemes; Compound Job, initial MDCI parallelization
   Dimitrios Manganas     : Further ROCIS development; embedding schemes
   Dimitrios Pantazis     : SARC Basis sets
   Anastasios Papadopoulos: AUTO-CI, single reference methods and gradients
   Taras Petrenko         : DFT Hessian,TD-DFT gradient, ASA, ECA, R-Raman, ABS, FL, XAS/XES, NRVS
   Peter Pinski           : DLPNO-MP2, DLPNO-MP2 Gradient
   Christoph Reimann      : Effective Core Potentials
   Marius Retegan         : Local ZFS, SOC
   Christoph Riplinger    : Optimizer, TS searches, QM/MM, DLPNO-CCSD(T), (RO)-DLPNO pert. Triples
   Tobias Risthaus        : Range-separated hybrids, TD-DFT gradient, RPA, STAB
   Michael Roemelt        : Original ROCIS implementation
   Masaaki Saitow         : Open-shell DLPNO-CCSD energy and density
   Barbara Sandhoefer     : DKH picture change effects
   Avijit Sen             : IP-ROCIS
   Kantharuban Sivalingam : CASSCF convergence, NEVPT2, FIC-MRCI
   Bernardo de Souza      : ESD, SOC TD-DFT
   Georgi Stoychev        : AutoAux, RI-MP2 NMR, DLPNO-MP2 response
   Willem Van den Heuvel  : Paramagnetic NMR
   Boris Wezisla          : Elementary symmetry handling
   Frank Wennmohs         : Technical directorship


 We gratefully acknowledge several colleagues who have allowed us to
 interface, adapt or use parts of their codes:
   Stefan Grimme, W. Hujo, H. Kruse, P. Pracht,  : VdW corrections, initial TS optimization,
                  C. Bannwarth, S. Ehlert          DFT functionals, gCP, sTDA/sTD-DF
   Ed Valeev, F. Pavosevic, A. Kumar             : LibInt (2-el integral package), F12 methods
   Garnet Chan, S. Sharma, J. Yang, R. Olivares  : DMRG
   Ulf Ekstrom                                   : XCFun DFT Library
   Mihaly Kallay                                 : mrcc  (arbitrary order and MRCC methods)
   Jiri Pittner, Ondrej Demel                    : Mk-CCSD
   Frank Weinhold                                : gennbo (NPA and NBO analysis)
   Christopher J. Cramer and Donald G. Truhlar   : smd solvation model
   Lars Goerigk                                  : TD-DFT with DH, B97 family of functionals
   V. Asgeirsson, H. Jonsson                     : NEB implementation
   FAccTs GmbH                                   : IRC, NEB, NEB-TS, DLPNO-Multilevel, CI-OPT
                                                   MM, QMMM, 2- and 3-layer-ONIOM, Crystal-QMMM,
                                                   LR-CPCM, SF, NACMEs, symmetry and pop. for TD-DFT,
                                                   nearIR, NL-DFT gradient (VV10), updates on ESD,
                                                   ML-optimized integration grids
   S Lehtola, MJT Oliveira, MAL Marques          : LibXC Library
   Liviu Ungur et al                             : ANISO software


 Your calculation uses the libint2 library for the computation of 2-el integrals
 For citations please refer to: http://libint.valeyev.net

 Your ORCA version has been built with support for libXC version: 5.1.0
 For citations please refer to: https://tddft.org/programs/libxc/

 This ORCA versions uses:
   CBLAS   interface :  Fast vector & matrix operations
   LAPACKE interface :  Fast linear algebra routines
   SCALAPACK package :  Parallel linear algebra routines
   Shared memory     :  Shared parallel matrices
   BLAS/LAPACK       :  OpenBLAS 0.3.15  USE64BITINT DYNAMIC_ARCH NO_AFFINITY Zen SINGLE_THREADED
        Core in use  :  Zen
   Copyright (c) 2011-2014, The OpenBLAS Project




***************************************
The coordinates will be read from file: geo.xyz
***************************************


================================================================================

----- Orbital basis set information -----
Your calculation utilizes the basis: DKH-def2-TZVPP
   Exponents from def2-TZVPP [F. Weigend and R. Ahlrichs, Phys. Chem. Chem. Phys. 7, 3297 (2005)],
   recontracted for DKH2 by D. A. Pantazis.

----- AuxJ basis set information -----
Your calculation utilizes the AutoAux generation procedure.
  G. L. Stoychev, A. A. Auer, F. Neese, J. Chem. Theory Comput. 13, 554 (2017)

----- AuxC basis set information -----
Your calculation utilizes the AutoAux generation procedure.
  G. L. Stoychev, A. A. Auer, F. Neese, J. Chem. Theory Comput. 13, 554 (2017)

----- AuxJK basis set information -----
Your calculation utilizes the AutoAux generation procedure.
  G. L. Stoychev, A. A. Auer, F. Neese, J. Chem. Theory Comput. 13, 554 (2017)

================================================================================
                                        WARNINGS
                       Please study these warnings very carefully!
================================================================================


INFO   : the flag for use of the SHARK integral package has been found!

================================================================================
                                       INPUT FILE
================================================================================
NAME = rho.inp
|  1> !CASSCF  DKH DKH-def2-TZVPP  RIJCOSX NoSFitting VeryTightSCF autoaux moread SlowConv
|  2> %moinp "orb.gbw"
|  3> %pal
|  4> nprocs 40
|  5> end
|  6> %maxcore 4000
|  7> # swap
|  8> #%scf
|  9> # Rotate
| 10> #  { 39, 49 }
| 11> # end
| 12> #end
| 13> #
| 14> %rel
| 15>  picturechange 2
| 16> end
| 17> %casscf
| 18>  nel  7
| 19>  norb 5
| 20>  mult 4,2
| 21>  nroots 10,40
| 22>  maxiter 100
| 23>  ActOrbs dOrbs
| 24>  rel
| 25>   printlevel 3
| 26>   dosoc true
| 27>   gtensor true
| 28>   quad true
| 29>  end
| 30> end
| 31> * xyzfile 0 4 geo.xyz *
| 32> 
| 33>                          ****END OF INPUT****
================================================================================

                       ****************************
                       * Single Point Calculation *
                       ****************************

---------------------------------
CARTESIAN COORDINATES (ANGSTROEM)
---------------------------------
  Co     0.000000   -0.000000   -0.000000
  Br     2.255353    0.000000    0.000000
  Br    -2.255353    0.000000    0.000000

----------------------------
CARTESIAN COORDINATES (A.U.)
----------------------------
  NO LB      ZA    FRAG     MASS         X           Y           Z
   0 Co   27.0000    0    58.930    0.000001   -0.000000   -0.000000
   1 Br   35.0000    0    79.900    4.261999    0.000000    0.000000
   2 Br   35.0000    0    79.900   -4.261999    0.000000    0.000000

--------------------------------
INTERNAL COORDINATES (ANGSTROEM)
--------------------------------
 Co     0   0   0     0.000000000000     0.00000000     0.00000000
 Br     1   0   0     2.255352225618     0.00000000     0.00000000
 Br     1   2   0     2.255353144487   180.00000000     0.00000000

---------------------------
INTERNAL COORDINATES (A.U.)
---------------------------
 Co     0   0   0     0.000000000000     0.00000000     0.00000000
 Br     1   0   0     4.261998041949     0.00000000     0.00000000
 Br     1   2   0     4.261999778359   180.00000000     0.00000000

---------------------
BASIS SET INFORMATION
---------------------
There are 2 groups of distinct atoms

 Group   1 Type Co  : 17s12p7d2f1g contracted to 10s7p4d2f1g pattern {8111111111/6111111/4111/11/1}
 Group   2 Type Br  : 17s13p8d1f contracted to 10s8p4d1f pattern {8111111111/61111111/5111/1}

Atom   0Co   basis set group =>   1
Atom   1Br   basis set group =>   2
Atom   2Br   basis set group =>   2
---------------------------------
AUXILIARY/J BASIS SET INFORMATION
---------------------------------
There are 2 groups of distinct atoms

 Group   1 Type Co  : 22s18p17d17f16g6h3i contracted to 22s18p17d17f16g6h3i pattern {1111111111111111111111/111111111111111111/11111111111111111/11111111111111111/1111111111111111/111111/111}
 Group   2 Type Br  : 21s19p17d17f12g4h contracted to 21s19p17d17f12g4h pattern {111111111111111111111/1111111111111111111/11111111111111111/11111111111111111/111111111111/1111}

Atom   0Co   basis set group =>   1
Atom   1Br   basis set group =>   2
Atom   2Br   basis set group =>   2
---------------------------------
AUXILIARY/C BASIS SET INFORMATION
---------------------------------
There are 2 groups of distinct atoms

 Group   1 Type Co  : 22s18p17d17f16g6h3i contracted to 22s18p17d17f16g6h3i pattern {1111111111111111111111/111111111111111111/11111111111111111/11111111111111111/1111111111111111/111111/111}
 Group   2 Type Br  : 21s19p17d17f12g4h contracted to 21s19p17d17f12g4h pattern {111111111111111111111/1111111111111111111/11111111111111111/11111111111111111/111111111111/1111}

Atom   0Co   basis set group =>   1
Atom   1Br   basis set group =>   2
Atom   2Br   basis set group =>   2
----------------------------------
AUXILIARY/JK BASIS SET INFORMATION
----------------------------------
There are 2 groups of distinct atoms

 Group   1 Type Co  : 22s18p17d17f16g6h3i contracted to 22s18p17d17f16g6h3i pattern {1111111111111111111111/111111111111111111/11111111111111111/11111111111111111/1111111111111111/111111/111}
 Group   2 Type Br  : 21s19p17d17f12g4h contracted to 21s19p17d17f12g4h pattern {111111111111111111111/1111111111111111111/11111111111111111/11111111111111111/111111111111/1111}

Atom   0Co   basis set group =>   1
Atom   1Br   basis set group =>   2
Atom   2Br   basis set group =>   2


           ************************************************************
           *        Program running with 40 parallel MPI-processes    *
           *              working on a common directory               *
           ************************************************************
------------------------------------------------------------------------------
                           ORCA GTO INTEGRAL CALCULATION
                           -- RI-GTO INTEGRALS CHOSEN --
------------------------------------------------------------------------------
------------------------------------------------------------------------------
                   ___                                                        
                  /   \      - P O W E R E D   B Y -                         
                 /     \                                                     
                 |  |  |   _    _      __       _____    __    __             
                 |  |  |  | |  | |    /  \     |  _  \  |  |  /  |          
                  \  \/   | |  | |   /    \    | | | |  |  | /  /          
                 / \  \   | |__| |  /  /\  \   | |_| |  |  |/  /          
                |  |  |   |  __  | /  /__\  \  |    /   |      \           
                |  |  |   | |  | | |   __   |  |    \   |  |\   \          
                \     /   | |  | | |  |  |  |  | |\  \  |  | \   \       
                 \___/    |_|  |_| |__|  |__|  |_| \__\ |__|  \__/        
                                                                              
                      - O R C A' S   B I G   F R I E N D -                    
                                      &                                       
                       - I N T E G R A L  F E E D E R -                       
                                                                              
 v1 FN, 2020, v2 2021                                                         
------------------------------------------------------------------------------


Reading SHARK input file rho.SHARKINP.tmp ... ok
----------------------
SHARK INTEGRAL PACKAGE
----------------------

Number of atoms                             ...      3
Number of basis functions                   ...    196
Number of shells                            ...     70
Maximum angular momentum                    ...      4
Integral batch strategy                     ... SHARK/LIBINT Hybrid
RI-J (if used) integral strategy            ... SPLIT-RIJ (Revised 2003 algorithm where possible)
Printlevel                                  ...      1
Contraction scheme used                     ... SEGMENTED contraction
Coulomb Range Separation                    ... NOT USED
Exchange Range Separation                   ... NOT USED
Finite Nucleus Model                        ... NOT USED
Auxiliary Coulomb fitting basis             ... AVAILABLE
   # of basis functions in Aux-J            ...   1397
   # of shells in Aux-J                     ...    279
   Maximum angular momentum in Aux-J        ...      6
Auxiliary J/K fitting basis                 ... AVAILABLE
   # of basis functions in Aux-JK           ...   1397
   # of shells in Aux-JK                    ...    279
   Maximum angular momentum in Aux-JK       ...      6
Auxiliary Correlation fitting basis         ... AVAILABLE
   # of basis functions in Aux-C            ...   1397
   # of shells in Aux-C                     ...    279
   Maximum angular momentum in Aux-C        ...      6
Auxiliary 'external' fitting basis          ... NOT available
Integral threshold                          ...     1.000000e-12
Primitive cut-off                           ...     1.000000e-14
Primitive pair pre-selection threshold      ...     1.000000e-14

Calculating pre-screening integrals         ... done (  0.1 sec) Dimension = 70
Organizing shell pair data                  ... done (  0.0 sec)
Shell pair information
Total number of shell pairs                 ...      2485
Shell pairs after pre-screening             ...      1907
Total number of primitive shell pairs       ...      7058
Primitive shell pairs kept                  ...      4385
          la=0 lb=0:    291 shell pairs
          la=1 lb=0:    498 shell pairs
          la=1 lb=1:    219 shell pairs
          la=2 lb=0:    292 shell pairs
          la=2 lb=1:    240 shell pairs
          la=2 lb=2:     75 shell pairs
          la=3 lb=0:     96 shell pairs
          la=3 lb=1:     80 shell pairs
          la=3 lb=2:     48 shell pairs
          la=3 lb=3:     10 shell pairs
          la=4 lb=0:     20 shell pairs
          la=4 lb=1:     21 shell pairs
          la=4 lb=2:     12 shell pairs
          la=4 lb=3:      4 shell pairs
          la=4 lb=4:      1 shell pairs

Calculating one electron integrals          ... done (  0.1 sec)
Calculating RI/J V-Matrix + Cholesky decomp.... done (  0.3 sec)
Calculating RI/JK V-Matrix + Cholesky decomp... done (  0.1 sec)
Calculating RI/C V-Matrix + Cholesky decomp.... done (  0.1 sec)
Calculating Nuclear repulsion               ... done (  0.0 sec) ENN=    587.165800075166 Eh

SHARK setup successfully completed in   1.5 seconds

Maximum memory used throughout the entire GTOINT-calculation: 36.1 MB


           ************************************************************
           *        Program running with 40 parallel MPI-processes    *
           *              working on a common directory               *
           ************************************************************
------------------------------------------------------------------------------
                          ORCA RELATIVISTIC HAMILTONIAN
------------------------------------------------------------------------------

Relativistic Method            ... DKH
Order of DKH treatment         ...   2
Treatment of potential         ... V(e,N)
Eps parameter for DKH          ...   0.00000000010000
Nucleus model                  ... Point Nucleus
Speed of light used            ... 137.03598950000000


            ************************************************
            *        DOUGLAS-KROLL-HESS HAMILTONIAN        *
            *   Programmed by FN according to literature   *
            *        procedures. Special thanks to         *
            *       B.A. Hess, M. Reiher and A. Wolf       *
            *     University Erlangen-Nuernberg/Bonn       *
            ************************************************

Uncontracting the basis (first version)        ... done
Number of contracted basis functions           ...  196
Number of uncontracted basis functions         ...  317
Initializing the DKH file                      ... done
Calculating the relativistic integrals         ... done
Storing DKH matrices                           ... done
Code used for DKH trafo                        ... ORCA
Computing the DKH transformation               ... done
Storing the transformation variables           ... done
Transforming V and pVp to p**2 space           ... done
First transformation of V and pVp              ... done
Second transformation of Veff                  ... done
Adding kinetic energy                          ... done
Back transformation of Veff to r-space         ... done
Recovering DKH matrices                        ... done
Recontracting the H-matrix (first version)     ... done
Computing the DKH correction to the H-matrix   ... done
Reading the original H-matrix                  ... done
Adding DKH correction to the H-matrix          ... done
Storing the new modified H-matrix              ... done

Maximum memory used throughout the entire REL-calculation: 68.9 MB


           ************************************************************
           *        Program running with 40 parallel MPI-processes    *
           *              working on a common directory               *
           ************************************************************
-------------------------------------------------------------------------------
                                 ORCA SCF
-------------------------------------------------------------------------------

------------
SCF SETTINGS
------------
Hamiltonian:
 Ab initio Hamiltonian  Method          .... Hartree-Fock(GTOs)
 RI-approximation to the Coulomb term is turned on
   Number of AuxJ basis functions       .... 1397
   RIJ-COSX (HFX calculated with COS-X)).... on

Relativistic Settings:
 Scalar relativistic method             .... Douglas-Kroll-Hess
 Order of DKH procedure    Order        ....    2
 Mode of DKH-treatment                  .... V=V(e,N)
 Speed of light used       Velit        ....       137.035989
 Cutoff-constant           Eps          ....            1e-10 


General Settings:
 Integral files         IntName         .... rho
 Hartree-Fock type      HFTyp           .... CASSCF
 Total Charge           Charge          ....    0
 Multiplicity           Mult            ....    4
 Number of Electrons    NEL             ....   97
 Basis Dimension        Dim             ....  196
 Nuclear Repulsion      ENuc            ....    587.1658000752 Eh


Diagonalization of the overlap matrix:
Smallest eigenvalue                        ... 4.462e-04
Time for diagonalization                   ...    0.007 sec
Threshold for overlap eigenvalues          ... 1.000e-08
Number of eigenvalues below threshold      ... 0
Time for construction of square roots      ...    0.006 sec
Total time needed                          ...    0.015 sec

---------------------
INITIAL GUESS: MOREAD
---------------------
Guess MOs are being read from file: orb.gbw
Input Geometry matches current geometry (good)
Input basis set matches current basis set (good)
MOs were renormalized
Gram-Schmidt orthogonalization of all MOs with pivot on actives
                      ------------------
                      INITIAL GUESS DONE (   0.1 sec)
                      ------------------
--------------------
COSX GRID GENERATION
--------------------

GRIDX 1
-------
General Integration Accuracy     IntAcc      ... 3.816
Radial Grid Type                 RadialGrid  ... OptM3 with GC (2021)
Angular Grid (max. ang.)         AngularGrid ... 1 (Lebedev-50)
Angular grid pruning method      GridPruning ... 4 (adaptive)
Weight generation scheme         WeightScheme... Becke
Basis function cutoff            BFCut       ... 1.0000e-12
Integration weight cutoff        WCut        ... 1.0000e-14
Angular grids for H and He will be reduced by one unit
Partially contracted basis set               ... on
Rotationally invariant grid construction     ... off

Total number of grid points                  ...     3702
Total number of batches                      ...       60
Average number of points per batch           ...       61
Average number of grid points per atom       ...     1234

GRIDX 2
-------
General Integration Accuracy     IntAcc      ... 4.020
Radial Grid Type                 RadialGrid  ... OptM3 with GC (2021)
Angular Grid (max. ang.)         AngularGrid ... 2 (Lebedev-110)
Angular grid pruning method      GridPruning ... 4 (adaptive)
Weight generation scheme         WeightScheme... Becke
Basis function cutoff            BFCut       ... 1.0000e-12
Integration weight cutoff        WCut        ... 1.0000e-14
Angular grids for H and He will be reduced by one unit
Partially contracted basis set               ... on
Rotationally invariant grid construction     ... off

Total number of grid points                  ...     8096
Total number of batches                      ...      129
Average number of points per batch           ...       62
Average number of grid points per atom       ...     2699

GRIDX 3
-------
General Integration Accuracy     IntAcc      ... 4.338
Radial Grid Type                 RadialGrid  ... OptM3 with GC (2021)
Angular Grid (max. ang.)         AngularGrid ... 3 (Lebedev-194)
Angular grid pruning method      GridPruning ... 4 (adaptive)
Weight generation scheme         WeightScheme... Becke
Basis function cutoff            BFCut       ... 1.0000e-12
Integration weight cutoff        WCut        ... 1.0000e-14
Angular grids for H and He will be reduced by one unit
Partially contracted basis set               ... on
Rotationally invariant grid construction     ... off

Total number of grid points                  ...    18732
Total number of batches                      ...      294
Average number of points per batch           ...       63
Average number of grid points per atom       ...     6244

Time for X-Grid setup             =    0.243 sec



 ... the calculation is a CASSCF calculation -I'm leaving here GOOD LUCK!!!



           ************************************************************
           *        Program running with 40 parallel MPI-processes    *
           *              working on a common directory               *
           ************************************************************
-------------------------------------------------------------------------------
                              ORCA-CASSCF
-------------------------------------------------------------------------------

Setting up the integral package       ... done
Setting up the integral package (RI)  ... done
Building the CAS space                ... done (10 configurations for Mult=4)
Building the CAS space                ... done (30 configurations for Mult=2)

SYSTEM-SPECIFIC SETTINGS:
Number of active electrons          ...    7
Number of active orbitals           ...    5
Total number of electrons           ...   97
Total number of orbitals            ...  196
Total number aux. functions         ... 1397

Determined orbital ranges:
   Internal       0 -   44 (  45 orbitals)
   Active        45 -   49 (   5 orbitals)
   External      50 -  195 ( 146 orbitals)
Number of rotation parameters      ...   7525

CI-STEP:
CI strategy                         ... General CI
Number of multiplicity blocks       ...    2
BLOCK  1 WEIGHT=   0.5000
  Multiplicity                      ...    4
  #(Configurations)                 ...   10
  #(CSFs)                           ...   10
  #(Roots)                          ...   10
    ROOT=0 WEIGHT=    0.050000
    ROOT=1 WEIGHT=    0.050000
    ROOT=2 WEIGHT=    0.050000
    ROOT=3 WEIGHT=    0.050000
    ROOT=4 WEIGHT=    0.050000
    ROOT=5 WEIGHT=    0.050000
    ROOT=6 WEIGHT=    0.050000
    ROOT=7 WEIGHT=    0.050000
    ROOT=8 WEIGHT=    0.050000
    ROOT=9 WEIGHT=    0.050000

BLOCK  2 WEIGHT=   0.5000
  Multiplicity                      ...    2
  #(Configurations)                 ...   30
  #(CSFs)                           ...   40
  #(Roots)                          ...   40
    ROOT=0 WEIGHT=    0.012500
    ROOT=1 WEIGHT=    0.012500
    ROOT=2 WEIGHT=    0.012500
    ROOT=3 WEIGHT=    0.012500
    ROOT=4 WEIGHT=    0.012500
    ROOT=5 WEIGHT=    0.012500
    ROOT=6 WEIGHT=    0.012500
    ROOT=7 WEIGHT=    0.012500
    ROOT=8 WEIGHT=    0.012500
    ROOT=9 WEIGHT=    0.012500
    ROOT=10 WEIGHT=    0.012500
    ROOT=11 WEIGHT=    0.012500
    ROOT=12 WEIGHT=    0.012500
    ROOT=13 WEIGHT=    0.012500
    ROOT=14 WEIGHT=    0.012500
    ROOT=15 WEIGHT=    0.012500
    ROOT=16 WEIGHT=    0.012500
    ROOT=17 WEIGHT=    0.012500
    ROOT=18 WEIGHT=    0.012500
    ROOT=19 WEIGHT=    0.012500
    ROOT=20 WEIGHT=    0.012500
    ROOT=21 WEIGHT=    0.012500
    ROOT=22 WEIGHT=    0.012500
    ROOT=23 WEIGHT=    0.012500
    ROOT=24 WEIGHT=    0.012500
    ROOT=25 WEIGHT=    0.012500
    ROOT=26 WEIGHT=    0.012500
    ROOT=27 WEIGHT=    0.012500
    ROOT=28 WEIGHT=    0.012500
    ROOT=29 WEIGHT=    0.012500
    ROOT=30 WEIGHT=    0.012500
    ROOT=31 WEIGHT=    0.012500
    ROOT=32 WEIGHT=    0.012500
    ROOT=33 WEIGHT=    0.012500
    ROOT=34 WEIGHT=    0.012500
    ROOT=35 WEIGHT=    0.012500
    ROOT=36 WEIGHT=    0.012500
    ROOT=37 WEIGHT=    0.012500
    ROOT=38 WEIGHT=    0.012500
    ROOT=39 WEIGHT=    0.012500

  PrintLevel                        ...    1
  N(GuessMat)                       ...       512
  MaxDim(CI)                        ...        10
  MaxIter(CI)                       ...        64
  Energy Tolerance CI               ...  1.00e-09
  Residual Tolerance CI             ...  1.00e-09
  Shift(CI)                         ...  1.00e-04

INTEGRAL-TRANSFORMATION-STEP:
  Algorithm                         ... RI-MO

ORBITAL-IMPROVEMENT-STEP:
  Algorithm                         ... SuperCI
  Default Parametrization           ... CAYLEY
  Act-Act rotations                 ... depends on algorithm used
  FreezeIE                          ... 95.00% of ||g||
  Until reaching FreezeIE rotations with active orbitals are damped. 

  Approx. Fock at                   ... 0.000000e+00 density convergence
  Level shift                       ... energy gap dependent. Minimum=1.000
  Switch step at gradient           ...  3.00e-02 
  Switch step at iteration          ...        50   
  Switch step to                    ... DIIS    

SCF-SETTINGS:
  Incremental                       ... off
  RIJCOSX approximation             ... on
  UseFinalGrid                      ... on
  RI-JK approximation               ... off
  AO integral handling              ... DIRECT
  Integral Neglect Thresh           ...  1.00e-12
  Primitive cutoff TCut             ...  1.00e-14
  Energy convergence tolerance      ...  1.00e-08
  Orbital gradient convergence      ...  1.00e-05
  Max. number of iterations         ...       100  


PROPERTIES-SETTINGS:
  Spin orbit coupling               ... true
  GTensor                           ... true

FINAL ORBITALS:
  Active   Orbitals                 ... d-orbitals 
  Internal Orbitals                 ... canonical 
  External Orbitals                 ... canonical 

------------------
CAS-SCF ITERATIONS
------------------


MACRO-ITERATION   1: 
   --- Canonicalize Internal Space
   --- Canonicalize External Space
   --- Inactive Energy E0 = -6577.26899218 Eh
CI-ITERATION   0: 
 -6600.432799669   0.000000000000 (    0.00)
 -6600.432799669   0.000000000000
 -6600.430035506   0.000000000000
 -6600.429991453   0.000000000000
 -6600.426338166   0.000000000000
 -6600.426338151   0.000000000000
 -6600.425711046   0.000000000000
 -6600.356618361   0.000000000000
 -6600.342452865   0.000000000000
 -6600.342452750   0.000000000000
   CI-PROBLEM SOLVED
   DENSITIES MADE
CI-ITERATION   0: 
 -6600.350055769   0.000000000000 (    0.01)
 -6600.350055678   0.000000000000
 -6600.349789476   0.000000000000
 -6600.349652839   0.000000000000
 -6600.349649705   0.000000000000
 -6600.348694153   0.000000000000
 -6600.348694153   0.000000000000
 -6600.344000983   0.000000000000
 -6600.344000979   0.000000000000
 -6600.331683978   0.000000000000
 -6600.329978421   0.000000000000
 -6600.329978279   0.000000000000
 -6600.325652570   0.000000000000
 -6600.325645918   0.000000000000
 -6600.325140150   0.000000000000
 -6600.325140044   0.000000000000
 -6600.319819895   0.000000000000
 -6600.319819894   0.000000000000
 -6600.317416033   0.000000000000
 -6600.317413766   0.000000000000
 -6600.316789753   0.000000000000
 -6600.312982172   0.000000000000
 -6600.312982112   0.000000000000
 -6600.307631110   0.000000000000
 -6600.307631110   0.000000000000
 -6600.306520549   0.000000000000
 -6600.306520544   0.000000000000
 -6600.304074108   0.000000000000
 -6600.242040576   0.000000000000
 -6600.241459289   0.000000000000
 -6600.241459136   0.000000000000
 -6600.239486430   0.000000000000
 -6600.239479683   0.000000000000
 -6600.234690287   0.000000000000
 -6600.234690287   0.000000000000
 -6600.140470451   0.000000000000
 -6600.136720938   0.000000000000
 -6600.136720775   0.000000000000
 -6600.117443556   0.000000000000
 -6600.117423239   0.000000000000
   CI-PROBLEM SOLVED
   DENSITIES MADE

                 <<<<<<<<<<<<<<<<<<INITIAL CI STATE CHECK>>>>>>>>>>>>>>>>>>

BLOCK  1 MULT= 4 NROOTS=10 
ROOT   0:  E=   -6600.4327996686 Eh
      0.22469 [     2]: 11221
      0.19570 [     3]: 12112
      0.18576 [     0]: 11122
      0.12357 [     8]: 21211
      0.08482 [     5]: 12211
      0.06581 [     1]: 11212
      0.03854 [     6]: 21112
      0.03028 [     9]: 22111
      0.02902 [     7]: 21121
      0.02180 [     4]: 12121
ROOT   1:  E=   -6600.4327996686 Eh  0.000 eV      0.0 cm**-1
      0.31954 [     1]: 11212
      0.18120 [     4]: 12121
      0.14355 [     7]: 21121
      0.12600 [     2]: 11221
      0.10085 [     3]: 12112
      0.05588 [     6]: 21112
      0.04103 [     5]: 12211
      0.01219 [     9]: 22111
      0.01074 [     8]: 21211
      0.00903 [     0]: 11122
ROOT   2:  E=   -6600.4300355062 Eh  0.075 eV    606.7 cm**-1
      0.36531 [     7]: 21121
      0.25710 [     4]: 12121
      0.15483 [     8]: 21211
      0.09752 [     5]: 12211
      0.04179 [     0]: 11122
      0.03633 [     6]: 21112
      0.01562 [     3]: 12112
      0.01074 [     9]: 22111
      0.01069 [     2]: 11221
      0.01009 [     1]: 11212
ROOT   3:  E=   -6600.4299914534 Eh  0.076 eV    616.3 cm**-1
      0.37625 [     6]: 21112
      0.19682 [     8]: 21211
      0.19379 [     3]: 12112
      0.10937 [     5]: 12211
      0.05881 [     0]: 11122
      0.02989 [     2]: 11221
      0.02446 [     9]: 22111
      0.00724 [     4]: 12121
ROOT   4:  E=   -6600.4263381656 Eh  0.176 eV   1418.1 cm**-1
      0.24494 [     6]: 21112
      0.24051 [     9]: 22111
      0.20592 [     5]: 12211
      0.13115 [     2]: 11221
      0.08722 [     0]: 11122
      0.07177 [     4]: 12121
      0.00684 [     7]: 21121
      0.00605 [     3]: 12112
      0.00420 [     1]: 11212
ROOT   5:  E=   -6600.4263381510 Eh  0.176 eV   1418.1 cm**-1
      0.22333 [     7]: 21121
      0.21271 [     1]: 11212
      0.16291 [     5]: 12211
      0.12119 [     0]: 11122
      0.08537 [     3]: 12112
      0.07789 [     2]: 11221
      0.05581 [     4]: 12121
      0.03251 [     9]: 22111
      0.01603 [     6]: 21112
      0.01225 [     8]: 21211
ROOT   6:  E=   -6600.4257110459 Eh  0.193 eV   1555.8 cm**-1
      0.18659 [     1]: 11212
      0.15777 [     3]: 12112
      0.12938 [     4]: 12121
      0.12365 [     7]: 21121
      0.11365 [     2]: 11221
      0.09245 [     5]: 12211
      0.07325 [     8]: 21211
      0.04696 [     0]: 11122
      0.04023 [     9]: 22111
      0.03606 [     6]: 21112
ROOT   7:  E=   -6600.3566183614 Eh  2.073 eV  16719.9 cm**-1
      0.29273 [     0]: 11122
      0.17015 [     5]: 12211
      0.14795 [     2]: 11221
      0.14765 [     1]: 11212
      0.09700 [     6]: 21112
      0.06486 [     8]: 21211
      0.06170 [     4]: 12121
      0.00904 [     3]: 12112
      0.00697 [     9]: 22111
ROOT   8:  E=   -6600.3424528651 Eh  2.458 eV  19828.8 cm**-1
      0.50970 [     9]: 22111
      0.11629 [     8]: 21211
      0.08663 [     6]: 21112
      0.07041 [     4]: 12121
      0.05982 [     3]: 12112
      0.04978 [     1]: 11212
      0.04977 [     7]: 21121
      0.03128 [     5]: 12211
      0.01923 [     2]: 11221
      0.00709 [     0]: 11122
ROOT   9:  E=   -6600.3424527502 Eh  2.458 eV  19828.9 cm**-1
      0.24601 [     8]: 21211
      0.17599 [     3]: 12112
      0.14942 [     0]: 11122
      0.14359 [     4]: 12121
      0.11886 [     2]: 11221
      0.09242 [     9]: 22111
      0.05551 [     7]: 21121
      0.01234 [     6]: 21112
      0.00454 [     5]: 12211

BLOCK  2 MULT= 2 NROOTS=40 
ROOT   0:  E=   -6600.3500557694 Eh
      0.13631 [     2]: 02212
      0.08771 [    16]: 20221
      0.08235 [     9]: 12112
      0.07288 [    21]: 21211
      0.06605 [    10]: 12121
      0.06373 [    18]: 21112
      0.06129 [     4]: 10222
      0.05890 [    13]: 12220
      0.05009 [    19]: 21121
      0.03724 [    12]: 12211
      0.03492 [    24]: 22021
      0.03192 [     8]: 12022
      0.03084 [    15]: 20212
      0.02911 [    14]: 20122
      0.02838 [    17]: 21022
      0.02100 [     6]: 11212
      0.01908 [    22]: 21220
      0.01635 [    26]: 22111
      0.01376 [     5]: 11122
      0.01128 [     1]: 02122
      0.00816 [     7]: 11221
      0.00772 [    11]: 12202
      0.00708 [    23]: 22012
      0.00688 [     0]: 01222
      0.00485 [    25]: 22102
      0.00374 [    27]: 22120
      0.00256 [    29]: 22210
ROOT   1:  E=   -6600.3500556779 Eh  0.000 eV      0.0 cm**-1
      0.13549 [     3]: 02221
      0.12969 [    14]: 20122
      0.10821 [    18]: 21112
      0.10779 [    10]: 12121
      0.07024 [    28]: 22201
      0.06081 [    21]: 21211
      0.05297 [     6]: 11212
      0.03783 [    20]: 21202
      0.03656 [     5]: 11122
      0.03573 [    27]: 22120
      0.03346 [     7]: 11221
      0.03042 [     9]: 12112
      0.02899 [     2]: 02212
      0.02670 [    11]: 12202
      0.02649 [    23]: 22012
      0.01548 [    22]: 21220
      0.01221 [     8]: 12022
      0.01051 [     0]: 01222
      0.00851 [    26]: 22111
      0.00847 [    17]: 21022
      0.00782 [    15]: 20212
      0.00349 [    19]: 21121
      0.00304 [    12]: 12211
      0.00267 [    25]: 22102
ROOT   2:  E=   -6600.3497894763 Eh  0.007 eV     58.4 cm**-1
      0.10914 [    18]: 21112
      0.10189 [     9]: 12112
      0.10179 [    19]: 21121
      0.08327 [    10]: 12121
      0.07881 [     4]: 10222
      0.07094 [     7]: 11221
      0.05938 [    12]: 12211
      0.05267 [     6]: 11212
      0.04788 [    26]: 22111
      0.04773 [    29]: 22210
      0.03984 [     0]: 01222
      0.03076 [    21]: 21211
      0.02499 [     8]: 12022
      0.02430 [    20]: 21202
      0.02200 [     2]: 02212
      0.01728 [    14]: 20122
      0.01706 [    15]: 20212
      0.01297 [    24]: 22021
      0.01284 [     3]: 02221
      0.01241 [    17]: 21022
      0.00690 [    27]: 22120
      0.00615 [     5]: 11122
      0.00614 [    28]: 22201
      0.00489 [    22]: 21220
      0.00439 [    25]: 22102
      0.00303 [    16]: 20221
ROOT   3:  E=   -6600.3496528389 Eh  0.011 eV     88.4 cm**-1
      0.19804 [     7]: 11221
      0.10218 [     9]: 12112
      0.09752 [     3]: 02221
      0.09258 [     5]: 11122
      0.09194 [    21]: 21211
      0.06435 [    11]: 12202
      0.05745 [    19]: 21121
      0.05160 [    20]: 21202
      0.03854 [    24]: 22021
      0.03099 [    17]: 21022
      0.02769 [     6]: 11212
      0.02337 [    14]: 20122
      0.02095 [     1]: 02122
      0.01530 [    27]: 22120
      0.01381 [    26]: 22111
      0.01284 [    15]: 20212
      0.01216 [     8]: 12022
      0.01200 [    13]: 12220
      0.00953 [    25]: 22102
      0.00828 [    12]: 12211
      0.00481 [    10]: 12121
      0.00372 [     4]: 10222
      0.00323 [    23]: 22012
      0.00313 [    18]: 21112
ROOT   4:  E=   -6600.3496497051 Eh  0.011 eV     89.1 cm**-1
      0.24449 [     6]: 11212
      0.08171 [    12]: 12211
      0.07065 [    22]: 21220
      0.06843 [    19]: 21121
      0.05699 [     2]: 02212
      0.05445 [     5]: 11122
      0.04489 [     1]: 02122
      0.04386 [     9]: 12112
      0.03653 [     7]: 11221
      0.03618 [    17]: 21022
      0.03243 [    23]: 22012
      0.03205 [    27]: 22120
      0.03109 [    18]: 21112
      0.02530 [    13]: 12220
      0.02072 [    20]: 21202
      0.02039 [     8]: 12022
      0.01311 [     3]: 02221
      0.01264 [    24]: 22021
      0.01204 [    14]: 20122
      0.01085 [    21]: 21211
      0.01081 [     4]: 10222
      0.01033 [    11]: 12202
      0.00869 [    15]: 20212
      0.00626 [    26]: 22111
      0.00550 [    25]: 22102
      0.00361 [    10]: 12121
      0.00258 [    29]: 22210
ROOT   5:  E=   -6600.3486941526 Eh  0.037 eV    298.8 cm**-1
      0.12575 [    10]: 12121
      0.09321 [     2]: 02212
      0.07992 [    19]: 21121
      0.06496 [     6]: 11212
      0.06282 [     9]: 12112
      0.05989 [    18]: 21112
      0.05783 [    15]: 20212
      0.05625 [    26]: 22111
      0.04865 [     7]: 11221
      0.04764 [    27]: 22120
      0.04048 [    16]: 20221
      0.03716 [     3]: 02221
      0.03712 [     5]: 11122
      0.03112 [    20]: 21202
      0.02971 [    21]: 21211
      0.02349 [    12]: 12211
      0.02305 [    11]: 12202
      0.01785 [    14]: 20122
      0.01297 [    17]: 21022
      0.00956 [    24]: 22021
      0.00797 [    28]: 22201
      0.00769 [     1]: 02122
      0.00718 [     0]: 01222
      0.00631 [     8]: 12022
      0.00609 [    29]: 22210
      0.00463 [     4]: 10222
ROOT   6:  E=   -6600.3486941525 Eh  0.037 eV    298.8 cm**-1
      0.10427 [    18]: 21112
      0.09104 [    12]: 12211
      0.08102 [     9]: 12112
      0.07287 [    16]: 20221
      0.07286 [     1]: 02122
      0.07214 [     7]: 11221
      0.06803 [    10]: 12121
      0.06173 [    21]: 21211
      0.04543 [    19]: 21121
      0.04083 [    29]: 22210
      0.04049 [     5]: 11122
      0.02864 [     3]: 02221
      0.02798 [    25]: 22102
      0.02772 [    14]: 20122
      0.02500 [     0]: 01222
      0.02229 [     2]: 02212
      0.02146 [    23]: 22012
      0.02000 [    20]: 21202
      0.01871 [    26]: 22111
      0.01505 [    11]: 12202
      0.01185 [     4]: 10222
      0.00879 [    15]: 20212
      0.00600 [    24]: 22021
      0.00546 [    13]: 12220
      0.00408 [    27]: 22120
      0.00360 [     8]: 12022
ROOT   7:  E=   -6600.3440009833 Eh  0.165 eV   1328.9 cm**-1
      0.12819 [    18]: 21112
      0.09236 [    10]: 12121
      0.09145 [    19]: 21121
      0.08110 [    11]: 12202
      0.07763 [    26]: 22111
      0.07490 [    21]: 21211
      0.05812 [    13]: 12220
      0.04680 [    16]: 20221
      0.04103 [     5]: 11122
      0.04102 [    24]: 22021
      0.03351 [    12]: 12211
      0.03052 [     7]: 11221
      0.02992 [    23]: 22012
      0.02935 [    14]: 20122
      0.02318 [    25]: 22102
      0.02148 [     9]: 12112
      0.02142 [     2]: 02212
      0.01517 [     6]: 11212
      0.01191 [    27]: 22120
      0.01146 [    15]: 20212
      0.00892 [     0]: 01222
      0.00811 [     1]: 02122
      0.00654 [     4]: 10222
      0.00649 [    29]: 22210
      0.00389 [    22]: 21220
      0.00320 [    17]: 21022
ROOT   8:  E=   -6600.3440009786 Eh  0.165 eV   1328.9 cm**-1
      0.12825 [    19]: 21121
      0.12678 [    12]: 12211
      0.08605 [     9]: 12112
      0.05950 [    18]: 21112
      0.05656 [    17]: 21022
      0.05508 [     6]: 11212
      0.05001 [    15]: 20212
      0.04924 [     7]: 11221
      0.04793 [    23]: 22012
      0.04779 [    28]: 22201
      0.04434 [    10]: 12121
      0.04318 [    26]: 22111
      0.03578 [    16]: 20221
      0.03458 [    27]: 22120
      0.02467 [    22]: 21220
      0.01894 [     1]: 02122
      0.01645 [    25]: 22102
      0.01572 [     3]: 02221
      0.00999 [     5]: 11122
      0.00920 [    24]: 22021
      0.00785 [    20]: 21202
      0.00721 [    21]: 21211
      0.00679 [    13]: 12220
      0.00639 [    14]: 20122
      0.00487 [    29]: 22210
      0.00424 [     2]: 02212
ROOT   9:  E=   -6600.3316839780 Eh  0.500 eV   4032.1 cm**-1
      0.11905 [    14]: 20122
      0.09575 [    10]: 12121
      0.09265 [     2]: 02212
      0.08222 [    16]: 20221
      0.06883 [     3]: 02221
      0.05497 [    18]: 21112
      0.05432 [     5]: 11122
      0.05076 [     7]: 11221
      0.05050 [    21]: 21211
      0.04835 [     6]: 11212
      0.04369 [     1]: 02122
      0.04144 [     0]: 01222
      0.03534 [    15]: 20212
      0.03440 [     9]: 12112
      0.02911 [    20]: 21202
      0.02103 [    11]: 12202
      0.01800 [    26]: 22111
      0.01669 [    27]: 22120
      0.01229 [    23]: 22012
      0.01150 [     4]: 10222
      0.01036 [    12]: 12211
      0.00400 [    28]: 22201
ROOT  10:  E=   -6600.3299784206 Eh  0.546 eV   4406.5 cm**-1
      0.16651 [     6]: 11212
      0.12561 [    19]: 21121
      0.10649 [     9]: 12112
      0.08335 [     0]: 01222
      0.06521 [    15]: 20212
      0.05981 [     2]: 02212
      0.04603 [    10]: 12121
      0.04190 [    21]: 21211
      0.03970 [    25]: 22102
      0.03878 [    18]: 21112
      0.03738 [    22]: 21220
      0.03276 [    24]: 22021
      0.02948 [     7]: 11221
      0.01999 [    12]: 12211
      0.01903 [     5]: 11122
      0.01414 [    26]: 22111
      0.01360 [     4]: 10222
      0.01186 [     8]: 12022
      0.00988 [    29]: 22210
      0.00926 [    28]: 22201
      0.00742 [     1]: 02122
      0.00523 [     3]: 02221
      0.00511 [    27]: 22120
      0.00407 [    11]: 12202
      0.00384 [    23]: 22012
ROOT  11:  E=   -6600.3299782795 Eh  0.546 eV   4406.5 cm**-1
      0.23316 [     5]: 11122
      0.14857 [     7]: 11221
      0.12410 [     6]: 11212
      0.08234 [    12]: 12211
      0.07343 [     4]: 10222
      0.06298 [    19]: 21121
      0.05695 [     3]: 02221
      0.03671 [     0]: 01222
      0.02646 [    14]: 20122
      0.02281 [    21]: 21211
      0.01948 [    18]: 21112
      0.01576 [    25]: 22102
      0.01026 [    13]: 12220
      0.00903 [    10]: 12121
      0.00902 [    16]: 20221
      0.00682 [     1]: 02122
      0.00677 [    11]: 12202
      0.00671 [    17]: 21022
      0.00669 [    24]: 22021
      0.00664 [    27]: 22120
      0.00653 [    23]: 22012
      0.00608 [     9]: 12112
      0.00568 [     8]: 12022
      0.00512 [    20]: 21202
      0.00396 [    26]: 22111
      0.00282 [     2]: 02212
ROOT  12:  E=   -6600.3256525702 Eh  0.664 eV   5355.9 cm**-1
      0.16915 [     7]: 11221
      0.10962 [     5]: 11122
      0.10379 [    26]: 22111
      0.09638 [    12]: 12211
      0.06501 [    11]: 12202
      0.05372 [     0]: 01222
      0.05319 [    17]: 21022
      0.05193 [     4]: 10222
      0.04535 [    19]: 21121
      0.02905 [     1]: 02122
      0.02668 [    23]: 22012
      0.02545 [    22]: 21220
      0.02492 [    15]: 20212
      0.02419 [    20]: 21202
      0.01973 [    18]: 21112
      0.01949 [     6]: 11212
      0.01564 [    14]: 20122
      0.01207 [    16]: 20221
      0.01036 [    10]: 12121
      0.01035 [     9]: 12112
      0.00999 [    27]: 22120
      0.00945 [    24]: 22021
      0.00486 [    29]: 22210
      0.00332 [     2]: 02212
      0.00321 [     8]: 12022
ROOT  13:  E=   -6600.3256459177 Eh  0.664 eV   5357.3 cm**-1
      0.23205 [     6]: 11212
      0.09380 [     5]: 11122
      0.07785 [    18]: 21112
      0.07087 [     7]: 11221
      0.05659 [    13]: 12220
      0.05002 [    10]: 12121
      0.04824 [     9]: 12112
      0.04801 [    17]: 21022
      0.04537 [    21]: 21211
      0.03998 [    26]: 22111
      0.03972 [     0]: 01222
      0.03285 [    12]: 12211
      0.03092 [    19]: 21121
      0.02416 [    14]: 20122
      0.02134 [    27]: 22120
      0.01910 [    11]: 12202
      0.01269 [    16]: 20221
      0.01082 [    24]: 22021
      0.00938 [    25]: 22102
      0.00617 [     1]: 02122
      0.00496 [    22]: 21220
      0.00456 [    23]: 22012
      0.00387 [    20]: 21202
      0.00348 [    15]: 20212
      0.00315 [     4]: 10222
      0.00306 [    29]: 22210
      0.00283 [    28]: 22201
ROOT  14:  E=   -6600.3251401504 Eh  0.678 eV   5468.3 cm**-1
      0.16849 [     6]: 11212
      0.09886 [     7]: 11221
      0.09527 [    12]: 12211
      0.07885 [    18]: 21112
      0.07871 [    17]: 21022
      0.05665 [     8]: 12022
      0.05463 [    13]: 12220
      0.05138 [    19]: 21121
      0.05112 [    10]: 12121
      0.04869 [     5]: 11122
      0.04251 [    11]: 12202
      0.04165 [    15]: 20212
      0.03505 [    22]: 21220
      0.02255 [    14]: 20122
      0.01749 [     0]: 01222
      0.01282 [    21]: 21211
      0.00884 [     9]: 12112
      0.00834 [    28]: 22201
      0.00590 [     3]: 02221
      0.00487 [    26]: 22111
      0.00429 [    29]: 22210
      0.00373 [    25]: 22102
      0.00312 [    16]: 20221
ROOT  15:  E=   -6600.3251400445 Eh  0.678 eV   5468.4 cm**-1
      0.11120 [    19]: 21121
      0.09207 [     9]: 12112
      0.08533 [    15]: 20212
      0.07701 [     7]: 11221
      0.07654 [     1]: 02122
      0.07456 [     0]: 01222
      0.06837 [     5]: 11122
      0.06480 [    16]: 20221
      0.05316 [    11]: 12202
      0.03428 [    10]: 12121
      0.02802 [    13]: 12220
      0.02712 [    12]: 12211
      0.02507 [    25]: 22102
      0.02498 [    26]: 22111
      0.02005 [    20]: 21202
      0.01908 [    21]: 21211
      0.01863 [    29]: 22210
      0.01836 [    14]: 20122
      0.01770 [    18]: 21112
      0.01513 [     6]: 11212
      0.01204 [    24]: 22021
      0.01112 [     2]: 02212
      0.01058 [    23]: 22012
      0.00731 [     3]: 02221
      0.00334 [    17]: 21022
      0.00324 [    27]: 22120
ROOT  16:  E=   -6600.3198198947 Eh  0.823 eV   6636.0 cm**-1
      0.16201 [    12]: 12211
      0.10265 [    17]: 21022
      0.08065 [     7]: 11221
      0.06794 [     3]: 02221
      0.04768 [    16]: 20221
      0.04667 [     6]: 11212
      0.03983 [    18]: 21112
      0.03872 [    15]: 20212
      0.03609 [    11]: 12202
      0.03374 [    24]: 22021
      0.03233 [    21]: 21211
      0.03150 [     8]: 12022
      0.03019 [    10]: 12121
      0.02776 [    20]: 21202
      0.02608 [     1]: 02122
      0.02425 [    26]: 22111
      0.02208 [    25]: 22102
      0.02175 [    19]: 21121
      0.01999 [    28]: 22201
      0.01962 [    13]: 12220
      0.01945 [     9]: 12112
      0.01677 [    23]: 22012
      0.01627 [     4]: 10222
      0.00895 [    14]: 20122
      0.00691 [     0]: 01222
      0.00669 [    27]: 22120
      0.00535 [     5]: 11122
      0.00499 [    22]: 21220
      0.00291 [    29]: 22210
ROOT  17:  E=   -6600.3198198937 Eh  0.823 eV   6636.0 cm**-1
      0.13761 [     5]: 11122
      0.12013 [    13]: 12220
      0.07669 [    11]: 12202
      0.07223 [    18]: 21112
      0.05988 [    14]: 20122
      0.05859 [     2]: 02212
      0.05786 [    26]: 22111
      0.05536 [    19]: 21121
      0.04630 [    12]: 12211
      0.04557 [    15]: 20212
      0.04206 [    22]: 21220
      0.03461 [     1]: 02122
      0.03327 [    28]: 22201
      0.02901 [     6]: 11212
      0.02900 [    17]: 21022
      0.02287 [    10]: 12121
      0.02282 [    25]: 22102
      0.00926 [    23]: 22012
      0.00854 [    27]: 22120
      0.00809 [     8]: 12022
      0.00799 [     7]: 11221
      0.00625 [     3]: 02221
      0.00458 [    29]: 22210
      0.00301 [    24]: 22021
      0.00286 [     9]: 12112
ROOT  18:  E=   -6600.3174160330 Eh  0.888 eV   7163.6 cm**-1
      0.13335 [     3]: 02221
      0.11718 [    18]: 21112
      0.11091 [     4]: 10222
      0.08895 [    20]: 21202
      0.07417 [    10]: 12121
      0.05347 [    26]: 22111
      0.05341 [    16]: 20221
      0.04487 [    12]: 12211
      0.03714 [     7]: 11221
      0.03599 [     6]: 11212
      0.03560 [     1]: 02122
      0.02839 [    24]: 22021
      0.02601 [     8]: 12022
      0.02312 [     5]: 11122
      0.02082 [    14]: 20122
      0.02006 [    29]: 22210
      0.01980 [    27]: 22120
      0.01604 [    17]: 21022
      0.01497 [     9]: 12112
      0.00983 [    23]: 22012
      0.00633 [    19]: 21121
      0.00549 [    25]: 22102
      0.00534 [    21]: 21211
      0.00524 [     0]: 01222
      0.00438 [    11]: 12202
      0.00393 [    15]: 20212
      0.00259 [    22]: 21220
ROOT  19:  E=   -6600.3174137656 Eh  0.888 eV   7164.1 cm**-1
      0.20510 [     2]: 02212
      0.08698 [     5]: 11122
      0.07986 [    22]: 21220
      0.07851 [    21]: 21211
      0.06977 [    14]: 20122
      0.06571 [    19]: 21121
      0.06130 [     8]: 12022
      0.05436 [    15]: 20212
      0.04334 [    26]: 22111
      0.03985 [     6]: 11212
      0.03469 [    10]: 12121
      0.01976 [     7]: 11221
      0.01916 [    13]: 12220
      0.01894 [    16]: 20221
      0.01865 [    17]: 21022
      0.01461 [    25]: 22102
      0.01445 [    18]: 21112
      0.01423 [    28]: 22201
      0.01304 [    20]: 21202
      0.00930 [     1]: 02122
      0.00912 [     9]: 12112
      0.00891 [    23]: 22012
      0.00734 [     4]: 10222
      0.00596 [    11]: 12202
      0.00261 [     0]: 01222
      0.00250 [    29]: 22210
ROOT  20:  E=   -6600.3167897529 Eh  0.905 eV   7301.0 cm**-1
      0.22605 [    12]: 12211
      0.17269 [    19]: 21121
      0.07833 [    25]: 22102
      0.05656 [    18]: 21112
      0.05379 [     5]: 11122
      0.05050 [    10]: 12121
      0.04396 [    14]: 20122
      0.04126 [    26]: 22111
      0.03993 [    15]: 20212
      0.03013 [    23]: 22012
      0.02349 [    22]: 21220
      0.02334 [    21]: 21211
      0.02264 [    24]: 22021
      0.02039 [     1]: 02122
      0.01812 [     3]: 02221
      0.01780 [     6]: 11212
      0.01430 [     9]: 12112
      0.01212 [     2]: 02212
      0.01100 [     4]: 10222
      0.00862 [    13]: 12220
      0.00831 [    17]: 21022
      0.00702 [    29]: 22210
      0.00547 [     7]: 11221
      0.00526 [    27]: 22120
      0.00359 [    20]: 21202
      0.00287 [    16]: 20221
ROOT  21:  E=   -6600.3129821722 Eh  1.009 eV   8136.7 cm**-1
      0.18091 [    10]: 12121
      0.13874 [     9]: 12112
      0.10008 [    20]: 21202
      0.07761 [    22]: 21220
      0.06891 [    18]: 21112
      0.06539 [    19]: 21121
      0.06225 [    26]: 22111
      0.04762 [    11]: 12202
      0.04526 [    13]: 12220
      0.03971 [     5]: 11122
      0.03616 [    12]: 12211
      0.02806 [     6]: 11212
      0.01573 [    24]: 22021
      0.01504 [    21]: 21211
      0.01383 [    16]: 20221
      0.01201 [    27]: 22120
      0.01156 [     3]: 02221
      0.00986 [    28]: 22201
      0.00772 [     1]: 02122
      0.00503 [     7]: 11221
      0.00393 [    29]: 22210
      0.00383 [     8]: 12022
      0.00296 [     4]: 10222
      0.00296 [    17]: 21022
      0.00284 [    23]: 22012
ROOT  22:  E=   -6600.3129821121 Eh  1.009 eV   8136.7 cm**-1
      0.19475 [    21]: 21211
      0.13444 [    12]: 12211
      0.12716 [     8]: 12022
      0.09471 [     9]: 12112
      0.05399 [    18]: 21112
      0.04733 [    29]: 22210
      0.04495 [    13]: 12220
      0.04489 [    19]: 21121
      0.04161 [    10]: 12121
      0.03695 [     7]: 11221
      0.02795 [     6]: 11212
      0.02701 [    25]: 22102
      0.02461 [    17]: 21022
      0.01718 [     2]: 02212
      0.01426 [    26]: 22111
      0.01349 [    24]: 22021
      0.00877 [     5]: 11122
      0.00876 [    22]: 21220
      0.00827 [    11]: 12202
      0.00783 [    14]: 20122
      0.00682 [    15]: 20212
      0.00303 [    20]: 21202
      0.00296 [    28]: 22201
      0.00288 [     4]: 10222
ROOT  23:  E=   -6600.3076311100 Eh  1.154 eV   9311.1 cm**-1
      0.15783 [    26]: 22111
      0.11693 [    24]: 22021
      0.09338 [    18]: 21112
      0.08861 [    22]: 21220
      0.08721 [     9]: 12112
      0.08409 [    21]: 21211
      0.05917 [    25]: 22102
      0.05644 [    28]: 22201
      0.04197 [    27]: 22120
      0.03980 [    10]: 12121
      0.03313 [    13]: 12220
      0.02951 [    17]: 21022
      0.02878 [    12]: 12211
      0.01678 [     6]: 11212
      0.01549 [     5]: 11122
      0.01080 [    11]: 12202
      0.00839 [    20]: 21202
      0.00757 [    29]: 22210
      0.00456 [     2]: 02212
      0.00449 [    16]: 20221
      0.00304 [    19]: 21121
      0.00271 [    23]: 22012
ROOT  24:  E=   -6600.3076311100 Eh  1.154 eV   9311.1 cm**-1
      0.13939 [    26]: 22111
      0.13819 [    19]: 21121
      0.10429 [    23]: 22012
      0.09401 [    27]: 22120
      0.07787 [    21]: 21211
      0.06368 [    12]: 12211
      0.06119 [    29]: 22210
      0.05079 [    20]: 21202
      0.04555 [    10]: 12121
      0.04418 [    25]: 22102
      0.03904 [     8]: 12022
      0.03851 [    11]: 12202
      0.02498 [     7]: 11221
      0.01485 [    22]: 21220
      0.01433 [    18]: 21112
      0.01171 [     9]: 12112
      0.00831 [    17]: 21022
      0.00655 [     6]: 11212
      0.00550 [     5]: 11122
      0.00453 [    15]: 20212
      0.00387 [     1]: 02122
      0.00268 [    16]: 20221
ROOT  25:  E=   -6600.3065205493 Eh  1.185 eV   9554.9 cm**-1
      0.15347 [    27]: 22120
      0.11228 [    23]: 22012
      0.09399 [    21]: 21211
      0.07454 [    20]: 21202
      0.07152 [     6]: 11212
      0.05525 [    10]: 12121
      0.03797 [    11]: 12202
      0.03531 [     9]: 12112
      0.03467 [     0]: 01222
      0.03240 [    16]: 20221
      0.02964 [     1]: 02122
      0.02916 [    18]: 21112
      0.02900 [     8]: 12022
      0.02619 [    25]: 22102
      0.02491 [    28]: 22201
      0.02309 [     3]: 02221
      0.02280 [     5]: 11122
      0.02170 [    13]: 12220
      0.01931 [     7]: 11221
      0.01638 [    17]: 21022
      0.01567 [    12]: 12211
      0.01112 [    22]: 21220
      0.01021 [     4]: 10222
      0.00633 [    29]: 22210
      0.00551 [    19]: 21121
      0.00424 [    15]: 20212
ROOT  26:  E=   -6600.3065205435 Eh  1.185 eV   9554.9 cm**-1
      0.13821 [     9]: 12112
      0.12397 [    21]: 21211
      0.10657 [    24]: 22021
      0.10479 [     7]: 11221
      0.07452 [    29]: 22210
      0.06279 [     5]: 11122
      0.06175 [    11]: 12202
      0.04490 [    22]: 21220
      0.03731 [    17]: 21022
      0.03093 [    14]: 20122
      0.03064 [    25]: 22102
      0.02893 [    19]: 21121
      0.02221 [     6]: 11212
      0.02123 [     3]: 02221
      0.02117 [    20]: 21202
      0.01954 [    18]: 21112
      0.01566 [     1]: 02122
      0.01128 [    26]: 22111
      0.00870 [     4]: 10222
      0.00665 [    10]: 12121
      0.00637 [    13]: 12220
      0.00525 [    27]: 22120
      0.00467 [    12]: 12211
      0.00440 [    28]: 22201
ROOT  27:  E=   -6600.3040741079 Eh  1.251 eV  10091.8 cm**-1
      0.10896 [    13]: 12220
      0.10453 [     9]: 12112
      0.09397 [    18]: 21112
      0.08609 [    17]: 21022
      0.08205 [    10]: 12121
      0.06811 [    11]: 12202
      0.05871 [    28]: 22201
      0.05425 [    26]: 22111
      0.04899 [    21]: 21211
      0.04192 [     7]: 11221
      0.03776 [    16]: 20221
      0.02723 [    12]: 12211
      0.02678 [    19]: 21121
      0.02414 [    22]: 21220
      0.01924 [     1]: 02122
      0.01895 [    15]: 20212
      0.01789 [    24]: 22021
      0.01766 [     6]: 11212
      0.01333 [     5]: 11122
      0.01151 [    20]: 21202
      0.01059 [     8]: 12022
      0.00667 [    14]: 20122
      0.00586 [     2]: 02212
      0.00393 [     0]: 01222
      0.00312 [     4]: 10222
ROOT  28:  E=   -6600.2420405756 Eh  2.939 eV  23706.6 cm**-1
      0.20004 [    21]: 21211
      0.12544 [     9]: 12112
      0.11362 [     5]: 11122
      0.09209 [    10]: 12121
      0.07509 [     1]: 02122
      0.05758 [    15]: 20212
      0.04388 [    28]: 22201
      0.04309 [    12]: 12211
      0.03925 [     3]: 02221
      0.02583 [     7]: 11221
      0.02362 [    14]: 20122
      0.02284 [    26]: 22111
      0.02278 [    19]: 21121
      0.02145 [    27]: 22120
      0.01917 [    18]: 21112
      0.01753 [    23]: 22012
      0.01206 [    13]: 12220
      0.00938 [     6]: 11212
      0.00757 [     4]: 10222
      0.00726 [    22]: 21220
      0.00712 [    29]: 22210
      0.00605 [    17]: 21022
ROOT  29:  E=   -6600.2414592892 Eh  2.955 eV  23834.2 cm**-1
      0.11503 [     0]: 01222
      0.09777 [    29]: 22210
      0.07408 [    21]: 21211
      0.06526 [    24]: 22021
      0.06303 [    28]: 22201
      0.06126 [    23]: 22012
      0.05547 [     4]: 10222
      0.05403 [    27]: 22120
      0.05119 [    19]: 21121
      0.05073 [    25]: 22102
      0.05026 [     5]: 11122
      0.04527 [    18]: 21112
      0.03172 [     7]: 11221
      0.02921 [     6]: 11212
      0.02372 [     1]: 02122
      0.01635 [     9]: 12112
      0.01563 [     8]: 12022
      0.01414 [     3]: 02221
      0.01226 [    10]: 12121
      0.01012 [    17]: 21022
      0.01008 [    20]: 21202
      0.00932 [    11]: 12202
      0.00908 [    26]: 22111
      0.00733 [    16]: 20221
      0.00690 [    12]: 12211
      0.00648 [     2]: 02212
      0.00625 [    15]: 20212
      0.00520 [    14]: 20122
ROOT  30:  E=   -6600.2414591356 Eh  2.955 eV  23834.2 cm**-1
      0.21546 [    12]: 12211
      0.10592 [    18]: 21112
      0.08173 [    10]: 12121
      0.06943 [     5]: 11122
      0.06361 [    19]: 21121
      0.05912 [     7]: 11221
      0.05585 [     6]: 11212
      0.04813 [    25]: 22102
      0.04546 [    14]: 20122
      0.04131 [    16]: 20221
      0.03081 [     1]: 02122
      0.02604 [    24]: 22021
      0.02332 [     0]: 01222
      0.02314 [     2]: 02212
      0.02094 [    23]: 22012
      0.01957 [    21]: 21211
      0.01403 [    28]: 22201
      0.01236 [     4]: 10222
      0.01174 [     3]: 02221
      0.00864 [    15]: 20212
      0.00655 [    17]: 21022
      0.00484 [    26]: 22111
      0.00324 [    22]: 21220
      0.00290 [    13]: 12220
ROOT  31:  E=   -6600.2394864303 Eh  3.009 eV  24267.2 cm**-1
      0.22791 [    26]: 22111
      0.09300 [    16]: 20221
      0.08334 [     9]: 12112
      0.08210 [     7]: 11221
      0.06207 [     4]: 10222
      0.04959 [     1]: 02122
      0.04108 [    12]: 12211
      0.04101 [    25]: 22102
      0.03589 [    19]: 21121
      0.03524 [     5]: 11122
      0.03097 [    29]: 22210
      0.02889 [     8]: 12022
      0.02857 [    21]: 21211
      0.02510 [     6]: 11212
      0.02261 [    23]: 22012
      0.01785 [     0]: 01222
      0.01533 [    17]: 21022
      0.01223 [    14]: 20122
      0.01087 [    28]: 22201
      0.01072 [    10]: 12121
      0.00775 [    22]: 21220
      0.00659 [    20]: 21202
      0.00597 [     2]: 02212
      0.00550 [    11]: 12202
      0.00537 [    13]: 12220
      0.00391 [    18]: 21112
      0.00387 [    15]: 20212
      0.00371 [    27]: 22120
      0.00293 [     3]: 02221
ROOT  32:  E=   -6600.2394796832 Eh  3.009 eV  24268.6 cm**-1
      0.27460 [    26]: 22111
      0.10922 [     5]: 11122
      0.08623 [    15]: 20212
      0.07609 [     6]: 11212
      0.06221 [     0]: 01222
      0.04858 [    24]: 22021
      0.03985 [     4]: 10222
      0.03564 [     7]: 11221
      0.03564 [    27]: 22120
      0.03351 [     1]: 02122
      0.03076 [    28]: 22201
      0.02953 [    21]: 21211
      0.02438 [    25]: 22102
      0.01784 [    10]: 12121
      0.01724 [     9]: 12112
      0.01715 [    22]: 21220
      0.01293 [    13]: 12220
      0.01146 [     3]: 02221
      0.00902 [    19]: 21121
      0.00735 [    29]: 22210
      0.00728 [    18]: 21112
      0.00609 [    12]: 12211
      0.00351 [    23]: 22012
ROOT  33:  E=   -6600.2346902870 Eh  3.139 eV  25319.8 cm**-1
      0.11529 [     5]: 11122
      0.10144 [    22]: 21220
      0.08687 [    26]: 22111
      0.08601 [     9]: 12112
      0.07748 [    28]: 22201
      0.07544 [    20]: 21202
      0.06791 [     7]: 11221
      0.06205 [     8]: 12022
      0.05319 [    10]: 12121
      0.04218 [    19]: 21121
      0.03808 [    29]: 22210
      0.03777 [    18]: 21112
      0.03138 [    24]: 22021
      0.02229 [    25]: 22102
      0.02204 [    11]: 12202
      0.01415 [     0]: 01222
      0.01320 [    27]: 22120
      0.01091 [    13]: 12220
      0.00958 [    23]: 22012
      0.00607 [    15]: 20212
      0.00569 [    17]: 21022
      0.00526 [     6]: 11212
      0.00375 [    12]: 12211
      0.00322 [    21]: 21211
      0.00286 [     1]: 02122
      0.00283 [     3]: 02221
ROOT  34:  E=   -6600.2346902866 Eh  3.139 eV  25319.8 cm**-1
      0.15857 [    21]: 21211
      0.09507 [    10]: 12121
      0.09280 [     6]: 11212
      0.09236 [    26]: 22111
      0.07142 [     8]: 12022
      0.06030 [     7]: 11221
      0.05724 [    23]: 22012
      0.05198 [    29]: 22210
      0.04896 [    18]: 21112
      0.04540 [    25]: 22102
      0.03866 [    12]: 12211
      0.03633 [    19]: 21121
      0.02877 [    13]: 12220
      0.02494 [     5]: 11122
      0.02285 [    27]: 22120
      0.01664 [     9]: 12112
      0.01419 [     4]: 10222
      0.01283 [    17]: 21022
      0.00921 [     1]: 02122
      0.00663 [    20]: 21202
      0.00556 [    16]: 20221
      0.00332 [    28]: 22201
ROOT  35:  E=   -6600.1404704508 Eh  5.703 eV  45998.7 cm**-1
      0.17427 [     4]: 10222
      0.14282 [     8]: 12022
      0.11115 [     0]: 01222
      0.08435 [    11]: 12202
      0.07967 [    20]: 21202
      0.06638 [    13]: 12220
      0.06326 [    22]: 21220
      0.03482 [    16]: 20221
      0.03421 [    29]: 22210
      0.02938 [    17]: 21022
      0.02352 [    18]: 21112
      0.02120 [     9]: 12112
      0.01892 [    23]: 22012
      0.01686 [    10]: 12121
      0.01538 [    26]: 22111
      0.01428 [     3]: 02221
      0.01218 [     2]: 02212
      0.01181 [     7]: 11221
      0.00941 [    21]: 21211
      0.00686 [    15]: 20212
      0.00680 [    19]: 21121
      0.00676 [    14]: 20122
      0.00487 [     6]: 11212
      0.00344 [    12]: 12211
      0.00269 [     5]: 11122
ROOT  36:  E=   -6600.1367209380 Eh  5.805 eV  46821.6 cm**-1
      0.10795 [     4]: 10222
      0.10258 [     0]: 01222
      0.10253 [     8]: 12022
      0.08416 [    22]: 21220
      0.07760 [    29]: 22210
      0.05943 [    13]: 12220
      0.05635 [     1]: 02122
      0.05093 [    17]: 21022
      0.04420 [    20]: 21202
      0.04166 [    25]: 22102
      0.04163 [    15]: 20212
      0.03457 [    14]: 20122
      0.02971 [    11]: 12202
      0.02383 [     2]: 02212
      0.02270 [    18]: 21112
      0.02086 [    24]: 22021
      0.01851 [     6]: 11212
      0.01790 [    10]: 12121
      0.01705 [     3]: 02221
      0.01679 [    21]: 21211
      0.01518 [     7]: 11221
      0.00532 [     5]: 11122
      0.00253 [    12]: 12211
ROOT  37:  E=   -6600.1367207748 Eh  5.805 eV  46821.6 cm**-1
      0.12442 [    28]: 22201
      0.08299 [     1]: 02122
      0.08131 [    20]: 21202
      0.06826 [    23]: 22012
      0.05613 [    17]: 21022
      0.05570 [    27]: 22120
      0.04769 [    22]: 21220
      0.04417 [     3]: 02221
      0.04373 [    16]: 20221
      0.04214 [    25]: 22102
      0.03769 [     9]: 12112
      0.03312 [    21]: 21211
      0.03126 [    14]: 20122
      0.03101 [    15]: 20212
      0.03065 [     0]: 01222
      0.02511 [     2]: 02212
      0.02411 [    24]: 22021
      0.02368 [     7]: 11221
      0.02291 [     5]: 11122
      0.01944 [    19]: 21121
      0.01682 [    29]: 22210
      0.01611 [    13]: 12220
      0.01508 [    10]: 12121
      0.01042 [     8]: 12022
      0.00777 [     4]: 10222
      0.00458 [     6]: 11212
ROOT  38:  E=   -6600.1174435561 Eh  6.330 eV  51052.5 cm**-1
      0.24277 [    29]: 22210
      0.15641 [    23]: 22012
      0.12145 [    27]: 22120
      0.06587 [    15]: 20212
      0.04874 [    26]: 22111
      0.04498 [    24]: 22021
      0.04293 [    25]: 22102
      0.03981 [     1]: 02122
      0.03447 [    17]: 21022
      0.03326 [     2]: 02212
      0.02007 [    19]: 21121
      0.01951 [    13]: 12220
      0.01923 [    14]: 20122
      0.01804 [     3]: 02221
      0.01381 [     0]: 01222
      0.01364 [    10]: 12121
      0.01243 [     5]: 11122
      0.01239 [    21]: 21211
      0.00645 [     4]: 10222
      0.00537 [    16]: 20221
      0.00479 [     6]: 11212
      0.00383 [    28]: 22201
      0.00378 [    12]: 12211
      0.00348 [     8]: 12022
      0.00336 [    18]: 21112
      0.00323 [    20]: 21202
      0.00291 [     7]: 11221
ROOT  39:  E=   -6600.1174232388 Eh  6.330 eV  51056.9 cm**-1
      0.23597 [    28]: 22201
      0.13673 [    24]: 22021
      0.11715 [    25]: 22102
      0.07221 [    16]: 20221
      0.06418 [    27]: 22120
      0.05509 [    26]: 22111
      0.04800 [    14]: 20122
      0.04641 [     3]: 02221
      0.03366 [     1]: 02122
      0.03347 [    18]: 21112
      0.02726 [     8]: 12022
      0.02689 [    23]: 22012
      0.01679 [    10]: 12121
      0.01478 [    13]: 12220
      0.01420 [    12]: 12211
      0.01031 [    17]: 21022
      0.00940 [    20]: 21202
      0.00930 [    11]: 12202
      0.00531 [     7]: 11221
      0.00431 [     5]: 11122
      0.00407 [     6]: 11212
      0.00292 [     2]: 02212
      0.00269 [    19]: 21121

                 <<<<<<<<<<<<<<<<<<INITIAL CI STATE CHECK>>>>>>>>>>>>>>>>>>

   E(CAS)= -6600.346020617 Eh DE=    0.000000e+00
   --- Energy gap subspaces: Ext-Act = 1.682   Act-Int = 0.177
   --- current l-shift: Up(Ext-Act) = 1.00   Dn(Act-Int) = 1.82
   N(occ)=  1.40000 1.40000 1.40000 1.40000 1.40000
   ||g|| =     8.446896e-05 Max(G)=   -2.650242e-05 Rot=68,40
   --- Orbital Update [   SuperCI]
   SUPERCI-ITER   0: DE=    -0.000000000 <r|r>=      0.000000000
   <Psi(SX)|Psi(SX)>=      1.000000000 DE(SX)=-0.000000000
   Largest coefficient in the normalized |SX> wavefunction= 0.000010752
   --- Forming Natural Orbitals

MACRO-ITERATION   2: 
   ===>>> Convergence to 3.0e-02 achieved - switching to Step=DIIS
   --- Inactive Energy E0 = -6577.26899071 Eh
CI-ITERATION   0: 
 -6600.432799688   0.000000000000 (    0.00)
 -6600.432799688   0.000000000000
 -6600.430035585   0.000000000000
 -6600.429991528   0.000000000000
 -6600.426338162   0.000000000000
 -6600.426338134   0.000000000000
 -6600.425711038   0.000000000000
 -6600.356618380   0.000000000000
 -6600.342452848   0.000000000000
 -6600.342452746   0.000000000000
   CI-PROBLEM SOLVED
   DENSITIES MADE
CI-ITERATION   0: 
 -6600.350055752   0.000000000000 (    0.01)
 -6600.350055700   0.000000000000
 -6600.349789460   0.000000000000
 -6600.349652857   0.000000000000
 -6600.349649721   0.000000000000
 -6600.348694215   0.000000000000
 -6600.348694215   0.000000000000
 -6600.344000947   0.000000000000
 -6600.344000943   0.000000000000
 -6600.331684093   0.000000000000
 -6600.329978453   0.000000000000
 -6600.329978404   0.000000000000
 -6600.325652574   0.000000000000
 -6600.325645921   0.000000000000
 -6600.325140148   0.000000000000
 -6600.325140076   0.000000000000
 -6600.319819847   0.000000000000
 -6600.319819847   0.000000000000
 -6600.317416057   0.000000000000
 -6600.317413788   0.000000000000
 -6600.316789722   0.000000000000
 -6600.312982101   0.000000000000
 -6600.312982041   0.000000000000
 -6600.307631070   0.000000000000
 -6600.307631070   0.000000000000
 -6600.306520552   0.000000000000
 -6600.306520513   0.000000000000
 -6600.304074040   0.000000000000
 -6600.242040592   0.000000000000
 -6600.241459237   0.000000000000
 -6600.241459164   0.000000000000
 -6600.239486402   0.000000000000
 -6600.239479654   0.000000000000
 -6600.234690256   0.000000000000
 -6600.234690256   0.000000000000
 -6600.140470371   0.000000000000
 -6600.136720918   0.000000000000
 -6600.136720850   0.000000000000
 -6600.117443427   0.000000000000
 -6600.117423112   0.000000000000
   CI-PROBLEM SOLVED
   DENSITIES MADE
   E(CAS)= -6600.346020619 Eh DE=   -2.829438e-09
   --- Energy gap subspaces: Ext-Act = 1.678   Act-Int = 0.173
   --- current l-shift: Up(Ext-Act) = 0.50   Dn(Act-Int) = 1.33
   N(occ)=  1.40000 1.40000 1.40000 1.40000 1.40000
   ||g|| =     5.076068e-05 Max(G)=   -2.386197e-05 Rot=68,40
                     ---- THE CAS-SCF ENERGY   HAS CONVERGED ----
                            --- FINALIZING ORBITALS ---
                    ---- DOING ONE FINAL ITERATION FOR PRINTING ----
   --- d-orbitals (depends on the molecular axis frame)
 L-Center:  0 Co [0.000, -0.000, -0.000] 
   --- The active space contains 5 d Orbitals : OK
 Setting 45 active MO to AO dz2     (25)
 Setting 46 active MO to AO dxz     (26)
 Setting 47 active MO to AO dyz     (27)
 Setting 48 active MO to AO dx2y2   (28)
 Setting 49 active MO to AO dxy     (29)
   --- Canonicalize Internal Space
   --- Canonicalize External Space

MACRO-ITERATION   3: 
   --- Inactive Energy E0 = -6577.26899071 Eh
   --- All densities will be recomputed
CI-ITERATION   0: 
 -6600.432799688   0.000000000000 (    0.00)
 -6600.432799688   0.000000000000
 -6600.430035585   0.000000000000
 -6600.429991528   0.000000000000
 -6600.426338162   0.000000000000
 -6600.426338134   0.000000000000
 -6600.425711038   0.000000000000
 -6600.356618379   0.000000000000
 -6600.342452847   0.000000000000
 -6600.342452745   0.000000000000
   CI-PROBLEM SOLVED
   DENSITIES MADE
CI-ITERATION   0: 
 -6600.350055752   0.000000000000 (    0.01)
 -6600.350055700   0.000000000000
 -6600.349789459   0.000000000000
 -6600.349652857   0.000000000000
 -6600.349649721   0.000000000000
 -6600.348694215   0.000000000000
 -6600.348694215   0.000000000000
 -6600.344000947   0.000000000000
 -6600.344000942   0.000000000000
 -6600.331684093   0.000000000000
 -6600.329978453   0.000000000000
 -6600.329978404   0.000000000000
 -6600.325652574   0.000000000000
 -6600.325645921   0.000000000000
 -6600.325140148   0.000000000000
 -6600.325140075   0.000000000000
 -6600.319819847   0.000000000000
 -6600.319819847   0.000000000000
 -6600.317416057   0.000000000000
 -6600.317413788   0.000000000000
 -6600.316789721   0.000000000000
 -6600.312982101   0.000000000000
 -6600.312982041   0.000000000000
 -6600.307631070   0.000000000000
 -6600.307631070   0.000000000000
 -6600.306520552   0.000000000000
 -6600.306520513   0.000000000000
 -6600.304074040   0.000000000000
 -6600.242040591   0.000000000000
 -6600.241459237   0.000000000000
 -6600.241459164   0.000000000000
 -6600.239486402   0.000000000000
 -6600.239479654   0.000000000000
 -6600.234690256   0.000000000000
 -6600.234690256   0.000000000000
 -6600.140470370   0.000000000000
 -6600.136720918   0.000000000000
 -6600.136720849   0.000000000000
 -6600.117443427   0.000000000000
 -6600.117423112   0.000000000000
   CI-PROBLEM SOLVED
   DENSITIES MADE
   E(CAS)= -6600.346020619 Eh DE=    3.456080e-10
   --- Energy gap subspaces: Ext-Act = 0.476   Act-Int = -0.020
   --- current l-shift: Up(Ext-Act) = 0.86   Dn(Act-Int) = 1.35
   N(occ)=  1.40000 1.40000 1.40000 1.40000 1.40000
   ||g|| =     5.076067e-05 Max(G)=   -2.997262e-05 Rot=50,41
--------------
CASSCF RESULTS
--------------

Final CASSCF energy       : -6600.346020619 Eh -179604.5461 eV

----------------
ORBITAL ENERGIES
----------------

  NO   OCC          E(Eh)            E(eV) 
   0   2.0000    -498.102610    -13554.0611 
   1   2.0000    -498.102609    -13554.0611 
   2   2.0000    -285.854622     -7778.4997 
   3   2.0000     -67.041093     -1824.2809 
   4   2.0000     -67.041092     -1824.2809 
   5   2.0000     -58.952508     -1604.1793 
   6   2.0000     -58.952507     -1604.1793 
   7   2.0000     -58.952113     -1604.1685 
   8   2.0000     -58.952113     -1604.1685 
   9   2.0000     -58.952113     -1604.1685 
  10   2.0000     -58.952113     -1604.1685 
  11   2.0000     -35.552182      -967.4241 
  12   2.0000     -30.325903      -825.2098 
  13   2.0000     -30.325903      -825.2098 
  14   2.0000     -30.323120      -825.1340 
  15   2.0000     -10.144841      -276.0552 
  16   2.0000     -10.144833      -276.0549 
  17   2.0000      -7.502119      -204.1430 
  18   2.0000      -7.502118      -204.1430 
  19   2.0000      -7.499532      -204.0726 
  20   2.0000      -7.499532      -204.0726 
  21   2.0000      -7.499532      -204.0726 
  22   2.0000      -7.499532      -204.0726 
  23   2.0000      -4.703133      -127.9787 
  24   2.0000      -3.114546       -84.7511 
  25   2.0000      -3.112505       -84.6956 
  26   2.0000      -3.112505       -84.6956 
  27   2.0000      -3.108310       -84.5814 
  28   2.0000      -3.106979       -84.5452 
  29   2.0000      -3.106979       -84.5452 
  30   2.0000      -3.106868       -84.5422 
  31   2.0000      -3.106868       -84.5422 
  32   2.0000      -3.106217       -84.5245 
  33   2.0000      -3.104065       -84.4659 
  34   2.0000      -3.104063       -84.4658 
  35   2.0000      -3.103875       -84.4607 
  36   2.0000      -3.103873       -84.4607 
  37   2.0000      -1.024995       -27.8915 
  38   2.0000      -1.015495       -27.6330 
  39   2.0000      -0.519541       -14.1374 
  40   2.0000      -0.454252       -12.3608 
  41   2.0000      -0.436273       -11.8716 
  42   2.0000      -0.436272       -11.8716 
  43   2.0000      -0.428250       -11.6533 
  44   2.0000      -0.428250       -11.6533 
  45   1.4000      -0.440875       -11.9968 
  46   1.4000      -0.430084       -11.7032 
  47   1.4000      -0.448492       -12.2041 
  48   1.4000      -0.424281       -11.5453 
  49   1.4000      -0.430084       -11.7032 
  50   0.0000       0.052030         1.4158 
  51   0.0000       0.100555         2.7362 
  52   0.0000       0.100555         2.7362 
  53   0.0000       0.196181         5.3384 
  54   0.0000       0.221855         6.0370 
  55   0.0000       0.242544         6.6000 
  56   0.0000       0.242547         6.6000 
  57   0.0000       0.290878         7.9152 
  58   0.0000       0.334510         9.1025 
  59   0.0000       0.334510         9.1025 
  60   0.0000       0.365566         9.9476 
  61   0.0000       0.369142        10.0449 
  62   0.0000       0.369142        10.0449 
  63   0.0000       0.375392        10.2149 
  64   0.0000       0.375393        10.2149 
  65   0.0000       0.460152        12.5214 
  66   0.0000       0.460153        12.5214 
  67   0.0000       0.475705        12.9446 
  68   0.0000       0.520774        14.1710 
  69   0.0000       0.520775        14.1710 
  70   0.0000       0.536573        14.6009 
  71   0.0000       0.556843        15.1525 
  72   0.0000       0.556843        15.1525 
  73   0.0000       0.635011        17.2795 
  74   0.0000       0.635011        17.2795 
  75   0.0000       0.691996        18.8302 
  76   0.0000       0.747521        20.3411 
  77   0.0000       0.747521        20.3411 
  78   0.0000       0.894483        24.3401 
  79   0.0000       1.091409        29.6988 
  80   0.0000       1.091434        29.6994 
  81   0.0000       1.094959        29.7953 
  82   0.0000       1.124889        30.6098 
  83   0.0000       1.124889        30.6098 
  84   0.0000       1.209549        32.9135 
  85   0.0000       1.339088        36.4384 
[...]
 3 106   43845.3    228.1   0.00000   0.00007   0.00000   0.00000000000581   0.00000   0.99791   0.00209
 3 107   43845.3    228.1   0.00000   0.00015   0.00000   0.00000000001171   0.00000   0.99896   0.00104
 3 108   44154.1    226.5   0.00000   0.00000   0.00000   0.00000000000002   0.00000   0.00428   0.99572
 3 109   44154.1    226.5   0.00000   0.00000   0.00000   0.00000000000002   0.00000   0.00071   0.99929
 3 110   64668.7    154.6   0.00000   0.00000   0.00000   0.00000000000019   0.00000   0.99999   0.00001
 3 111   64668.7    154.6   0.00000   0.00000   0.00000   0.00000000000008   0.00000   0.99995   0.00005
 3 112   65395.2    152.9   0.00000   0.00002   0.00000   0.00000000000157   0.00000   1.00000   0.00000
 3 113   65395.2    152.9   0.00000   0.00002   0.00000   0.00000000000138   0.00000   1.00000   0.00000
 3 114   65642.4    152.3   0.00000   0.00000   0.00000   0.00000000000007   0.00000   0.00011   0.99989
 3 115   65642.4    152.3   0.00000   0.00000   0.00000   0.00000000000007   0.00000   0.00010   0.99990
 3 116   69483.7    143.9   0.00000   0.00000   0.00000   0.00000000000008   0.00000   0.00104   0.99896
 3 117   69483.7    143.9   0.00000   0.00000   0.00000   0.00000000000008   0.00000   0.00104   0.99896
 3 118   69994.4    142.9   0.00000   0.00003   0.00000   0.00000000000210   0.00000   0.95981   0.04019
 3 119   69994.4    142.9   0.00000   0.00002   0.00000   0.00000000000205   0.00000   0.95884   0.04116

Done

                 =============================
                 AB INITIO LIGAND FIELD THEORY
                       d7 configuration
                          2 CI blocks
                         MOs 45 to 49
                 =============================

Metal/Atom center is atom 0
orbital phases =   1.0   1.0   1.0   1.0   1.0 
Metal/Atom d-orbital parts of active orbitals
Shell 15
             45        46        47        48        49
dz2     :  0.610596  0.000000  0.000000 -0.000809 -0.000000
dxz     : -0.000000  0.614822 -0.000000 -0.000000 -0.000000
dyz     : -0.000000  0.000000  0.615150 -0.000000  0.000000
dx2y2   :  0.016576 -0.000001  0.000000  0.601189  0.000000
dxy     : -0.000001  0.000000 -0.000000  0.000002  0.614822
Shell 16
             45        46        47        48        49
dz2     :  0.409098 -0.000000  0.000000  0.000454  0.000000
dxz     : -0.000000  0.409505 -0.000000 -0.000000  0.000000
dyz     : -0.000000  0.000000  0.412700  0.000000 -0.000000
dx2y2   :  0.012085 -0.000000  0.000000  0.401617 -0.000000
dxy     : -0.000000  0.000000 -0.000000  0.000001  0.409505
Shell 17
             45        46        47        48        49
dz2     :  0.216487 -0.000000 -0.000000 -0.003062  0.000000
dxz     : -0.000000  0.215236  0.000000  0.000000  0.000000
dyz     : -0.000000  0.000000  0.216512 -0.000000  0.000000
dx2y2   :  0.003149  0.000000  0.000000  0.216435 -0.000001
dxy     :  0.000000  0.000000 -0.000000  0.000000  0.215236
Shell 20
             45        46        47        48        49
dz2     :  0.009523 -0.000000  0.000000  0.008835  0.000001
dxz     : -0.000000  0.002565  0.000000 -0.000000  0.000000
dyz     :  0.000000  0.000001  0.014570  0.000000 -0.000000
dx2y2   :  0.008956  0.000000  0.000000 -0.001092 -0.000000
dxy     :  0.000000  0.000000 -0.000000  0.000000  0.002565

Adjusting phases of one-electron integrals               ... done
Adjusting phases of two-electron integrals               ... done


-----------------------------------------------------------------
Computing F0s from 2-electron integrals                  ... done 
-----------------------------------------------------------------
F0   =  0.887226670 a.u. =    24.143 eV =  194723.7 cm**-1
-----------------------------------------------------------------

Preparing for fit                                        ... done
Making fit matrices                                      ... done
Calculating ab initio Hamiltonian matrices               ... 
Calculating fit matrices                                 ... done
Fitting                                                  ... done

------------------------------
AILFT MATRIX ELEMENTS (CASSCF)
--------------------------------

Ligand field one-electron matrix VLFT (a.u.) : 
Orbital          dz2        dxz        dyz        dx2-y2     dxy
  dz2         -5.897946   0.000000   0.000000  -0.007873  -0.000000 
  dxz          0.000000  -5.888612  -0.000000  -0.000000  -0.000000 
  dyz          0.000000  -0.000000  -5.902390  -0.000000   0.000000 
  dx2-y2      -0.007873  -0.000000  -0.000000  -5.888243   0.000000 
  dxy         -0.000000  -0.000000   0.000000   0.000000  -5.888612 

-------------------------------------------------
Slater-Condon Parameters (electronic repulsion) : 
-------------------------------------------------
F0dd(from 2el Ints)     =  0.887226670 a.u. =    24.143 eV =  194723.7 cm**-1 (fixed)
F2dd                    =  0.402713149 a.u. =    10.958 eV =   88385.3 cm**-1
F4dd                    =  0.253025849 a.u. =     6.885 eV =   55532.8 cm**-1
-------------------
Racah Parameters : 
-------------------
A(F0dd from 2el Ints)   =  0.859112687 a.u. =    23.378 eV =  188553.4 cm**-1
B                       =  0.005349862 a.u. =     0.146 eV =    1174.2 cm**-1
C                       =  0.020081417 a.u. =     0.546 eV =    4407.4 cm**-1
C/B                     =  3.754
-------------------------------------------------------------------------------

-----------------------------------------
The ligand field one electron eigenfunctions:
-----------------------------------------
Orbital    Energy (eV)  Energy(cm-1)      dz2        dxz        dyz        dx2-y2     dxy
    1          0.000        0.0         0.000033   0.000018   1.000000   0.000019  -0.000008 
    2          0.001       10.4        -0.873109   0.000010   0.000038  -0.487525   0.000009 
    3          0.375     3023.9        -0.000020  -0.757417   0.000009   0.000008  -0.652931 
    4          0.375     3023.9        -0.000026   0.652931  -0.000018   0.000047  -0.757417 
    5          0.505     4069.8         0.487525   0.000022   0.000001  -0.873109  -0.000052 
Ligand field orbitals were stored in rho.casscf.lft.gbw

Calculating ligand field Hamiltonian matrices          ... done
Diagonalizing and fitting the ligand field Hamiltonian ... done
Calculating statistical parameters                     ... done

Reference energy AI-LFT =    -23.164319092 au
Reference energy AI     =    -23.163808980 au

------------------------------------------------
COMPARISON OF AB INITIO AND LIGAND FIELD RESULTS
------------------------------------------------

Block   1
---------
   AI-Root   0: E(AI)=    0.000 eV -> LF-Root   0:     0.000 eV    S= 0.844 Delta=   -0.000 eV
   AI-Root   1: E(AI)=    0.000 eV -> LF-Root   1:     0.000 eV    S= 0.844 Delta=    0.000 eV
   AI-Root   2: E(AI)=    0.075 eV -> LF-Root   2:     0.129 eV    S= 0.995 Delta=   -0.053 eV
   AI-Root   3: E(AI)=    0.076 eV -> LF-Root   3:     0.130 eV    S= 1.000 Delta=   -0.054 eV
   AI-Root   4: E(AI)=    0.176 eV -> LF-Root   4:     0.180 eV    S= 0.783 Delta=   -0.004 eV
   AI-Root   5: E(AI)=    0.176 eV -> LF-Root   5:     0.171 eV    S= 0.783 Delta=    0.005 eV
   AI-Root   6: E(AI)=    0.193 eV -> LF-Root   6:     0.175 eV    S= 0.995 Delta=    0.018 eV
   AI-Root   7: E(AI)=    2.073 eV -> LF-Root   7:     2.009 eV    S= 1.000 Delta=    0.064 eV
   AI-Root   8: E(AI)=    2.458 eV -> LF-Root   8:     2.508 eV    S= 0.795 Delta=   -0.049 eV
   AI-Root   9: E(AI)=    2.458 eV -> LF-Root   9:     2.517 eV    S= 0.795 Delta=   -0.059 eV
   RMS error for this block =     0.040 eV =     322.8 cm**-1 

Block   2
---------
   AI-Root   0: E(AI)=    2.252 eV -> LF-Root   0:     2.264 eV    S= 0.784 Delta=   -0.012 eV
   AI-Root   1: E(AI)=    2.252 eV -> LF-Root   1:     2.267 eV    S= 0.784 Delta=   -0.016 eV
   AI-Root   2: E(AI)=    2.259 eV -> LF-Root   2:     2.259 eV    S= 0.998 Delta=   -0.000 eV
   AI-Root   3: E(AI)=    2.263 eV -> LF-Root   3:     2.289 eV    S= 0.998 Delta=   -0.027 eV
   AI-Root   4: E(AI)=    2.263 eV -> LF-Root   4:     2.289 eV    S= 1.000 Delta=   -0.027 eV
   AI-Root   5: E(AI)=    2.289 eV -> LF-Root   5:     2.342 eV    S= 0.967 Delta=   -0.053 eV
   AI-Root   6: E(AI)=    2.289 eV -> LF-Root   6:     2.342 eV    S= 0.967 Delta=   -0.053 eV
   AI-Root   7: E(AI)=    2.416 eV -> LF-Root   7:     2.431 eV    S= 0.999 Delta=   -0.015 eV
   AI-Root   8: E(AI)=    2.416 eV -> LF-Root   8:     2.431 eV    S= 0.999 Delta=   -0.015 eV
   AI-Root   9: E(AI)=    2.751 eV -> LF-Root   9:     2.787 eV    S= 0.997 Delta=   -0.035 eV
   AI-Root  10: E(AI)=    2.798 eV -> LF-Root  10:     2.813 eV    S= 0.710 Delta=   -0.016 eV
   AI-Root  11: E(AI)=    2.798 eV -> LF-Root  11:     2.823 eV    S= 0.707 Delta=   -0.025 eV
   AI-Root  12: E(AI)=    2.916 eV -> LF-Root  12:     2.907 eV    S= 0.998 Delta=    0.009 eV
   AI-Root  13: E(AI)=    2.916 eV -> LF-Root  13:     2.908 eV    S= 0.997 Delta=    0.008 eV
   AI-Root  14: E(AI)=    2.930 eV -> LF-Root  14:     2.928 eV    S= 0.726 Delta=    0.002 eV
   AI-Root  15: E(AI)=    2.930 eV -> LF-Root  15:     2.926 eV    S= 0.730 Delta=    0.003 eV
   AI-Root  16: E(AI)=    3.074 eV -> LF-Root  16:     3.057 eV    S= 0.749 Delta=    0.017 eV
   AI-Root  17: E(AI)=    3.074 eV -> LF-Root  17:     3.057 eV    S= 0.749 Delta=    0.018 eV
   AI-Root  18: E(AI)=    3.140 eV -> LF-Root  18:     3.178 eV    S= 0.997 Delta=   -0.038 eV
   AI-Root  19: E(AI)=    3.140 eV -> LF-Root  19:     3.179 eV    S= 0.939 Delta=   -0.040 eV
   AI-Root  20: E(AI)=    3.157 eV -> LF-Root  20:     3.164 eV    S= 0.941 Delta=   -0.007 eV
   AI-Root  21: E(AI)=    3.260 eV -> LF-Root  21:     3.244 eV    S= 0.998 Delta=    0.016 eV
   AI-Root  22: E(AI)=    3.260 eV -> LF-Root  22:     3.244 eV    S= 0.998 Delta=    0.016 eV
   AI-Root  23: E(AI)=    3.406 eV -> LF-Root  23:     3.453 eV    S= 0.825 Delta=   -0.047 eV
   AI-Root  24: E(AI)=    3.406 eV -> LF-Root  24:     3.453 eV    S= 0.825 Delta=   -0.047 eV
   AI-Root  25: E(AI)=    3.436 eV -> LF-Root  25:     3.469 eV    S= 0.759 Delta=   -0.032 eV
   AI-Root  26: E(AI)=    3.436 eV -> LF-Root  26:     3.467 eV    S= 0.760 Delta=   -0.031 eV
   AI-Root  27: E(AI)=    3.503 eV -> LF-Root  27:     3.471 eV    S= 1.000 Delta=    0.032 eV
   AI-Root  28: E(AI)=    5.191 eV -> LF-Root  28:     5.209 eV    S= 1.000 Delta=   -0.018 eV
   AI-Root  29: E(AI)=    5.207 eV -> LF-Root  29:     5.229 eV    S= 0.730 Delta=   -0.023 eV
   AI-Root  30: E(AI)=    5.207 eV -> LF-Root  30:     5.230 eV    S= 0.730 Delta=   -0.024 eV
   AI-Root  31: E(AI)=    5.260 eV -> LF-Root  31:     5.279 eV    S= 1.000 Delta=   -0.019 eV
   AI-Root  32: E(AI)=    5.261 eV -> LF-Root  32:     5.279 eV    S= 1.000 Delta=   -0.018 eV
   AI-Root  33: E(AI)=    5.391 eV -> LF-Root  33:     5.410 eV    S= 0.951 Delta=   -0.019 eV
   AI-Root  34: E(AI)=    5.391 eV -> LF-Root  34:     5.410 eV    S= 0.951 Delta=   -0.019 eV
   AI-Root  35: E(AI)=    7.955 eV -> LF-Root  35:     7.908 eV    S= 1.000 Delta=    0.046 eV
   AI-Root  36: E(AI)=    8.057 eV -> LF-Root  36:     8.088 eV    S= 0.883 Delta=   -0.031 eV
   AI-Root  37: E(AI)=    8.057 eV -> LF-Root  37:     8.097 eV    S= 0.883 Delta=   -0.040 eV
   AI-Root  38: E(AI)=    8.581 eV -> LF-Root  38:     8.572 eV    S= 1.000 Delta=    0.009 eV
   AI-Root  39: E(AI)=    8.582 eV -> LF-Root  39:     8.573 eV    S= 1.000 Delta=    0.009 eV
   RMS error for this block =     0.027 eV =     219.3 cm**-1 

Total RMS error g=     0.031 eV =     246.0 cm**-1
Note: Dropped RMS error for the reference energy.

Confidence intervals (95%) computed from the square root of the
diagonal elements of the covariance matrix:
H(dz2   ,dz2   )=  0.000195885 a.u. =     0.005 eV =      43.0 cm**-1
H(dxz   ,dz2   )=  0.000165721 a.u. =     0.005 eV =      36.4 cm**-1
H(dxz   ,dxz   )=  0.000195885 a.u. =     0.005 eV =      43.0 cm**-1
H(dyz   ,dz2   )=  0.000165721 a.u. =     0.005 eV =      36.4 cm**-1
H(dyz   ,dxz   )=  0.000165721 a.u. =     0.005 eV =      36.4 cm**-1
H(dyz   ,dyz   )=  0.000195885 a.u. =     0.005 eV =      43.0 cm**-1
H(dx2-y2,dz2   )=  0.000165721 a.u. =     0.005 eV =      36.4 cm**-1
H(dx2-y2,dxz   )=  0.000165721 a.u. =     0.005 eV =      36.4 cm**-1
H(dx2-y2,dyz   )=  0.000165721 a.u. =     0.005 eV =      36.4 cm**-1
H(dx2-y2,dx2-y2)=  0.000195885 a.u. =     0.005 eV =      43.0 cm**-1
H(dxy   ,dz2   )=  0.000165721 a.u. =     0.005 eV =      36.4 cm**-1
H(dxy   ,dxz   )=  0.000165721 a.u. =     0.005 eV =      36.4 cm**-1
H(dxy   ,dyz   )=  0.000165721 a.u. =     0.005 eV =      36.4 cm**-1
H(dxy   ,dx2-y2)=  0.000165721 a.u. =     0.005 eV =      36.4 cm**-1
H(dxy   ,dxy   )=  0.000195885 a.u. =     0.005 eV =      43.0 cm**-1
F2dd            =  0.000703458 a.u. =     0.019 eV =     154.4 cm**-1
F4dd            =  0.001020263 a.u. =     0.028 eV =     223.9 cm**-1
Pearson's correlation coefficient =    1.000 (should be close to 1)

----------------------------------------------
SPIN ORBIT COUPLING (based on CASSCF orbitals)
----------------------------------------------

AI-SOC-X integrals (cm-1)
                  0          1          2          3          4    
      0       0.000000   0.003984 901.329003   0.000036   0.003212
      1      -0.003984  -0.000000   0.000965   0.002703 587.196147
      2     -901.329003  -0.000965  -0.000000 -503.283093  -0.003650
      3      -0.000036  -0.002703 503.283093  -0.000000  -0.000178
      4      -0.003212 -587.196147   0.003650   0.000178  -0.000000
AI-SOC-Y integrals (cm-1)
                  0          1          2          3          4    
      0       0.000000 -852.476825  -0.001322   0.001716  -0.000423
      1     852.476825   0.000000  -0.000859 -468.010230   0.000515
      2       0.001322   0.000859  -0.000000  -0.003010 -516.151015
      3      -0.001716 468.010230   0.003010   0.000000   0.000919
      4       0.000423  -0.000515 516.151015  -0.000919   0.000000
AI-SOC-Z integrals (cm-1)
                  0          1          2          3          4    
      0       0.000000  -0.000202  -0.000329  -0.000109 -48.812189
      1       0.000202   0.000000 -516.150966  -0.000058   0.000298
      2       0.000329 516.150966  -0.000000  -0.001184  -0.001234
      3       0.000109   0.000058   0.001184   0.000000 -971.271210
      4      48.812189  -0.000298   0.001234 971.271210  -0.000000

Fit to the SOC matrix elements
a = 15.000000
b =     0.939 eV =    7571.0 cm**-1
SOC constant zeta =     0.063 eV =     504.7 cm**-1


LF-SOC-X integrals (cm-1)
                  0          1          2          3          4    
      0       0.000000  -0.000000 874.225471  -0.000000  -0.000000
      1       0.000000   0.000000  -0.000000  -0.000000 504.734311
      2     -874.225471   0.000000   0.000000 -504.734311  -0.000000
      3       0.000000   0.000000 504.734311   0.000000  -0.000000
      4       0.000000 -504.734311   0.000000   0.000000   0.000000
LF-SOC-Y integrals (cm-1)
                  0          1          2          3          4    
      0       0.000000 -874.225471  -0.000000  -0.000000  -0.000000
      1     874.225471   0.000000  -0.000000 -504.734311  -0.000000
      2       0.000000   0.000000   0.000000  -0.000000 -504.734311
      3       0.000000 504.734311   0.000000   0.000000  -0.000000
      4       0.000000   0.000000 504.734311   0.000000   0.000000
LF-SOC-Z integrals (cm-1)
                  0          1          2          3          4    
      0       0.000000  -0.000000  -0.000000  -0.000000  -0.000000
      1       0.000000   0.000000 -504.734311  -0.000000  -0.000000
      2       0.000000 504.734311   0.000000  -0.000000  -0.000000
      3       0.000000   0.000000   0.000000   0.000000 -1009.468623
      4       0.000000   0.000000   0.000000 1009.468623   0.000000

RMS error of nonzero matrix elements =   38.7 cm**-1


-----SOC-CONSTANTS-----
---All Values in cm-1---
ZETA_D = 504.73 
------------------------




---AILFT COMPLETED SUCCESFULLY!---

--------------
CASSCF TIMINGS
--------------

Total time                       ...       11.2 sec
Sum of individual times          ...       11.0 sec ( 98.1%)

Calculation of AO operators
   F(Core) operator              ...        3.9 sec ( 34.6%)
   G(Act) operator               ...        0.8 sec (  6.7%)
   J(AO) operators               ...        0.0 sec (  0.0%)
Calculation of MO transformed quantities
   J(MO) operators               ...        0.4 sec (  3.5%)
   (pq|rs) integrals             ...        0.0 sec (  0.0%)
   AO->MO one electron integrals ...        0.0 sec (  0.2%)
Configuration interaction steps
   CI-setup phase                ...        0.0 sec (  0.3%)
   CI-solution phase             ...        0.1 sec (  1.3%)
   Generation of densities       ...        0.0 sec (  0.2%)
Orbital improvement steps
   Orbital gradient              ...        0.0 sec (  0.1%)
   O(1) converger                ...        0.0 sec (  0.1%)
Properties                       ...        3.4 sec ( 30.7%)
   SOC integral calculation      ...        2.2 sec ( 19.3%)
   SSC RMEs (incl. integrals)    ...        0.0 sec (  0.0%)
   SOC RMEs                      ...        0.1 sec (  1.1%)

Maximum memory used throughout the entire CASSCF-calculation: 246.1 MB

-------------------------   --------------------
FINAL SINGLE POINT ENERGY     -6600.346020619108
-------------------------   --------------------


                            ***************************************
                            *     ORCA property calculations      *
                            ***************************************

                                    ---------------------
                                    Active property flags
                                    ---------------------
   (+) Dipole Moment


------------------------------------------------------------------------------
                       ORCA ELECTRIC PROPERTIES CALCULATION
------------------------------------------------------------------------------

Dipole Moment Calculation                       ... on
Quadrupole Moment Calculation                   ... off
Polarizability Calculation                      ... off
GBWName                                         ... rho.gbw
Electron density                                ... rho.scfp
The origin for moment calculation is the CENTER OF MASS  = (-0.000000,  0.000000  0.000000)

-------------
DIPOLE MOMENT
-------------
                                X             Y             Z
Electronic contribution:      0.00000       0.00000      -0.00000
Nuclear contribution   :      0.00000      -0.00000      -0.00000
                        -----------------------------------------
Total Dipole Moment    :      0.00000      -0.00000      -0.00000
                        -----------------------------------------
Magnitude (a.u.)       :      0.00000
Magnitude (Debye)      :      0.00000



--------------------
Rotational spectrum 
--------------------
 
Rotational constants in cm-1:     0.000000     0.020739     0.020739 
Rotational constants in MHz :     0.000000   621.744423   621.744423 

 Dipole components along the rotational axes: 
x,y,z [a.u.] :    -0.000002    -0.000000    -0.000000 
x,y,z [Debye]:    -0.000004    -0.000000    -0.000000 

 

Timings for individual modules:

Sum of individual times         ...       31.144 sec (=   0.519 min)
GTO integral calculation        ...        8.084 sec (=   0.135 min)  26.0 %
Relativistic integrals          ...        3.629 sec (=   0.060 min)  11.7 %
SCF iterations                  ...        2.640 sec (=   0.044 min)   8.5 %
CASSCF iterations               ...       16.791 sec (=   0.280 min)  53.9 %
                             ****ORCA TERMINATED NORMALLY****
TOTAL RUN TIME: 0 days 0 hours 0 minutes 35 seconds 829 msec
