
                                 *****************
                                 * O   R   C   A *
                                 *****************

                                            #,                                       
                                            ###                                      
                                            ####                                     
                                            #####                                    
                                            ######                                   
                                           ########,                                 
                                     ,,################,,,,,                         
                               ,,#################################,,                 
                          ,,##########################################,,             
                       ,#########################################, ''#####,          
                    ,#############################################,,   '####,        
                  ,##################################################,,,,####,       
                ,###########''''           ''''###############################       
              ,#####''   ,,,,##########,,,,          '''####'''          '####       
            ,##' ,,,,###########################,,,                        '##       
           ' ,,###''''                  '''############,,,                           
         ,,##''                                '''############,,,,        ,,,,,,###''
      ,#''                                            '''#######################'''  
     '                                                          ''''####''''         
             ,#######,   #######,   ,#######,      ##                                
            ,#'     '#,  ##    ##  ,#'     '#,    #''#        ######   ,####,        
            ##       ##  ##   ,#'  ##            #'  '#       #        #'  '#        
            ##       ##  #######   ##           ,######,      #####,   #    #        
            '#,     ,#'  ##    ##  '#,     ,#' ,#      #,         ##   #,  ,#        
             '#######'   ##     ##  '#######'  #'      '#     #####' # '####'        



                  #######################################################
                  #                        -***-                        #
                  #          Department of theory and spectroscopy      #
                  #    Directorship and core code : Frank Neese         #
                  #        Max Planck Institute fuer Kohlenforschung    #
                  #                Kaiser Wilhelm Platz 1               #
                  #                 D-45470 Muelheim/Ruhr               #
                  #                      Germany                        #
                  #                                                     #
                  #                  All rights reserved                #
                  #                        -***-                        #
                  #######################################################


                         Program Version 5.0.4 -  RELEASE  -


 With contributions from (in alphabetic order):
   Daniel Aravena         : Magnetic Suceptibility
   Michael Atanasov       : Ab Initio Ligand Field Theory (pilot matlab implementation)
   Alexander A. Auer      : GIAO ZORA, VPT2 properties, NMR spectrum
   Ute Becker             : Parallelization
   Giovanni Bistoni       : ED, misc. LED, open-shell LED, HFLD
   Martin Brehm           : Molecular dynamics
   Dmytro Bykov           : SCF Hessian
   Vijay G. Chilkuri      : MRCI spin determinant printing, contributions to CSF-ICE
   Dipayan Datta          : RHF DLPNO-CCSD density
   Achintya Kumar Dutta   : EOM-CC, STEOM-CC
   Dmitry Ganyushin       : Spin-Orbit,Spin-Spin,Magnetic field MRCI
   Miquel Garcia          : C-PCM and meta-GGA Hessian, CC/C-PCM, Gaussian charge scheme
   Yang Guo               : DLPNO-NEVPT2, F12-NEVPT2, CIM, IAO-localization
   Andreas Hansen         : Spin unrestricted coupled pair/coupled cluster methods
   Benjamin Helmich-Paris : MC-RPA, TRAH-SCF, COSX integrals
   Lee Huntington         : MR-EOM, pCC
   Robert Izsak           : Overlap fitted RIJCOSX, COSX-SCS-MP3, EOM
   Marcus Kettner         : VPT2
   Christian Kollmar      : KDIIS, OOCD, Brueckner-CCSD(T), CCSD density, CASPT2, CASPT2-K
   Simone Kossmann        : Meta GGA functionals, TD-DFT gradient, OOMP2, MP2 Hessian
   Martin Krupicka        : Initial AUTO-CI
   Lucas Lang             : DCDCAS
   Marvin Lechner         : AUTO-CI (C++ implementation), FIC-MRCC
   Dagmar Lenk            : GEPOL surface, SMD
   Dimitrios Liakos       : Extrapolation schemes; Compound Job, initial MDCI parallelization
   Dimitrios Manganas     : Further ROCIS development; embedding schemes
   Dimitrios Pantazis     : SARC Basis sets
   Anastasios Papadopoulos: AUTO-CI, single reference methods and gradients
   Taras Petrenko         : DFT Hessian,TD-DFT gradient, ASA, ECA, R-Raman, ABS, FL, XAS/XES, NRVS
   Peter Pinski           : DLPNO-MP2, DLPNO-MP2 Gradient
   Christoph Reimann      : Effective Core Potentials
   Marius Retegan         : Local ZFS, SOC
   Christoph Riplinger    : Optimizer, TS searches, QM/MM, DLPNO-CCSD(T), (RO)-DLPNO pert. Triples
   Tobias Risthaus        : Range-separated hybrids, TD-DFT gradient, RPA, STAB
   Michael Roemelt        : Original ROCIS implementation
   Masaaki Saitow         : Open-shell DLPNO-CCSD energy and density
   Barbara Sandhoefer     : DKH picture change effects
   Avijit Sen             : IP-ROCIS
   Kantharuban Sivalingam : CASSCF convergence, NEVPT2, FIC-MRCI
   Bernardo de Souza      : ESD, SOC TD-DFT
   Georgi Stoychev        : AutoAux, RI-MP2 NMR, DLPNO-MP2 response
   Willem Van den Heuvel  : Paramagnetic NMR
   Boris Wezisla          : Elementary symmetry handling
   Frank Wennmohs         : Technical directorship


 We gratefully acknowledge several colleagues who have allowed us to
 interface, adapt or use parts of their codes:
   Stefan Grimme, W. Hujo, H. Kruse, P. Pracht,  : VdW corrections, initial TS optimization,
                  C. Bannwarth, S. Ehlert          DFT functionals, gCP, sTDA/sTD-DF
   Ed Valeev, F. Pavosevic, A. Kumar             : LibInt (2-el integral package), F12 methods
   Garnet Chan, S. Sharma, J. Yang, R. Olivares  : DMRG
   Ulf Ekstrom                                   : XCFun DFT Library
   Mihaly Kallay                                 : mrcc  (arbitrary order and MRCC methods)
   Jiri Pittner, Ondrej Demel                    : Mk-CCSD
   Frank Weinhold                                : gennbo (NPA and NBO analysis)
   Christopher J. Cramer and Donald G. Truhlar   : smd solvation model
   Lars Goerigk                                  : TD-DFT with DH, B97 family of functionals
   V. Asgeirsson, H. Jonsson                     : NEB implementation
   FAccTs GmbH                                   : IRC, NEB, NEB-TS, DLPNO-Multilevel, CI-OPT
                                                   MM, QMMM, 2- and 3-layer-ONIOM, Crystal-QMMM,
                                                   LR-CPCM, SF, NACMEs, symmetry and pop. for TD-DFT,
                                                   nearIR, NL-DFT gradient (VV10), updates on ESD,
                                                   ML-optimized integration grids
   S Lehtola, MJT Oliveira, MAL Marques          : LibXC Library
   Liviu Ungur et al                             : ANISO software


 Your calculation uses the libint2 library for the computation of 2-el integrals
 For citations please refer to: http://libint.valeyev.net

 Your ORCA version has been built with support for libXC version: 5.1.0
 For citations please refer to: https://tddft.org/programs/libxc/

 This ORCA versions uses:
   CBLAS   interface :  Fast vector & matrix operations
   LAPACKE interface :  Fast linear algebra routines
   SCALAPACK package :  Parallel linear algebra routines
   Shared memory     :  Shared parallel matrices
   BLAS/LAPACK       :  OpenBLAS 0.3.15  USE64BITINT DYNAMIC_ARCH NO_AFFINITY Zen SINGLE_THREADED
        Core in use  :  Zen
   Copyright (c) 2011-2014, The OpenBLAS Project




***************************************
The coordinates will be read from file: geo.xyz
***************************************


================================================================================

----- Orbital basis set information -----
Your calculation utilizes the basis: DKH-def2-TZVPP
   Exponents from def2-TZVPP [F. Weigend and R. Ahlrichs, Phys. Chem. Chem. Phys. 7, 3297 (2005)],
   recontracted for DKH2 by D. A. Pantazis.

----- AuxJ basis set information -----
Your calculation utilizes the AutoAux generation procedure.
  G. L. Stoychev, A. A. Auer, F. Neese, J. Chem. Theory Comput. 13, 554 (2017)

----- AuxC basis set information -----
Your calculation utilizes the AutoAux generation procedure.
  G. L. Stoychev, A. A. Auer, F. Neese, J. Chem. Theory Comput. 13, 554 (2017)

----- AuxJK basis set information -----
Your calculation utilizes the AutoAux generation procedure.
  G. L. Stoychev, A. A. Auer, F. Neese, J. Chem. Theory Comput. 13, 554 (2017)

================================================================================
                                        WARNINGS
                       Please study these warnings very carefully!
================================================================================


INFO   : the flag for use of the SHARK integral package has been found!

================================================================================
                                       INPUT FILE
================================================================================
NAME = rho.inp
|  1> !CASSCF  DKH DKH-def2-TZVPP  RIJCOSX NoSFitting VeryTightSCF autoaux moread SlowConv
|  2> %moinp "orb.gbw"
|  3> %pal
|  4> nprocs 10
|  5> end
|  6> %maxcore 4000
|  7> # swap
|  8> #%scf
|  9> # Rotate
| 10> #  { 51, 43 }
| 11> # end
| 12> #end
| 13> #
| 14> %rel
| 15>  picturechange 2
| 16> end
| 17> %casscf
| 18>  nel  7
| 19>  norb 5
| 20>  mult 4,2
| 21>  nroots 10,40
| 22>  maxiter 100
| 23>  ActOrbs dOrbs
| 24>  rel
| 25>   printlevel 3
| 26>   dosoc true
| 27>   gtensor true
| 28>   quad true
| 29>  end
| 30> end
| 31> * xyzfile 2 4 geo.xyz *
| 32> 
| 33>                          ****END OF INPUT****
================================================================================

                       ****************************
                       * Single Point Calculation *
                       ****************************

---------------------------------
CARTESIAN COORDINATES (ANGSTROEM)
---------------------------------
  Co    -0.008664   -0.725429   -0.745573
  P      2.162169   -0.233579   -0.078613
  C      2.395556   -0.629813    1.678202
  C      2.530575    1.527464   -0.326786
  C      3.345661   -1.212852   -1.053088
  H      1.724411   -0.028768    2.303936
  H      2.213232   -1.696272    1.860645
  H      3.435334   -0.397341    1.954942
  H      1.859564    2.152855    0.274746
  H      2.435315    1.797046   -1.386072
  H      3.566663    1.715730   -0.006340
  H      3.256737   -0.977730   -2.121075
  H      3.181349   -2.286366   -0.897102
  H      4.362524   -0.956469   -0.716239
  P     -2.165475   -0.046606   -0.209955
  C     -2.385192    1.721586   -0.560909
  C     -2.512532   -0.331970    1.549791
  C     -3.372935   -0.984855   -1.195252
  H     -1.699590    2.325768    0.045850
  H     -2.215305    1.928147   -1.625027
  H     -3.418788    2.003203   -0.307636
  H     -1.826433    0.247856    2.179312
  H     -2.425286   -1.398125    1.793828
  H     -3.542320   -0.004845    1.759867
  H     -3.293338   -2.058868   -0.985663
  H     -3.220886   -0.806293   -2.267054
  H     -4.382346   -0.642434   -0.917692

----------------------------
CARTESIAN COORDINATES (A.U.)
----------------------------
  NO LB      ZA    FRAG     MASS         X           Y           Z
   0 Co   27.0000    0    58.930   -0.016372   -1.370861   -1.408928
   1 P    15.0000    0    30.974    4.085907   -0.441400   -0.148557
   2 C     6.0000    0    12.011    4.526946   -1.190174    3.171341
   3 C     6.0000    0    12.011    4.782093    2.886489   -0.617535
   4 C     6.0000    0    12.011    6.322382   -2.291958   -1.990048
   5 H     1.0000    0     1.008    3.258664   -0.054364    4.353808
   6 H     1.0000    0     1.008    4.182402   -3.205489    3.516109
   7 H     1.0000    0     1.008    6.491841   -0.750867    3.694305
   8 H     1.0000    0     1.008    3.514067    4.068307    0.519194
   9 H     1.0000    0     1.008    4.602078    3.395924   -2.619297
  10 H     1.0000    0     1.008    6.740017    3.242259   -0.011981
  11 H     1.0000    0     1.008    6.154341   -1.847641   -4.008250
  12 H     1.0000    0     1.008    6.011878   -4.320605   -1.695277
  13 H     1.0000    0     1.008    8.243976   -1.807465   -1.353495
  14 P    15.0000    0    30.974   -4.092154   -0.088072   -0.396757
  15 C     6.0000    0    12.011   -4.507360    3.253327   -1.059965
  16 C     6.0000    0    12.011   -4.747998   -0.627333    2.928680
  17 C     6.0000    0    12.011   -6.373924   -1.861105   -2.258700
  18 H     1.0000    0     1.008   -3.211759    4.395064    0.086644
  19 H     1.0000    0     1.008   -4.186320    3.643670   -3.070855
  20 H     1.0000    0     1.008   -6.460572    3.785505   -0.581347
  21 H     1.0000    0     1.008   -3.451459    0.468380    4.118303
  22 H     1.0000    0     1.008   -4.583126   -2.642073    3.389843
  23 H     1.0000    0     1.008   -6.694015   -0.009156    3.325667
  24 H     1.0000    0     1.008   -6.223506   -3.890696   -1.862633
  25 H     1.0000    0     1.008   -6.086593   -1.523672   -4.284112
  26 H     1.0000    0     1.008   -8.281434   -1.214024   -1.734187

--------------------------------
INTERNAL COORDINATES (ANGSTROEM)
--------------------------------
 Co     0   0   0     0.000000000000     0.00000000     0.00000000
 P      1   0   0     2.323632112641     0.00000000     0.00000000
 C      2   1   0     1.816003648499   110.58269824     0.00000000
 C      2   1   3     1.816200617763   110.82584362   239.60806937
 C      2   1   3     1.819128859522   109.88259195   119.74014472
 H      3   2   1     1.096920443766   110.71173326   298.38057296
 H      3   2   1     1.097206716634   110.58398203    60.10117049
 H      3   2   1     1.100802392670   108.57341796   179.26280221
 H      4   2   1     1.096909244151   110.72022927    61.34593756
 H      4   2   1     1.097195076760   110.64337305   299.56488393
 H      4   2   1     1.100730897871   108.48125520   180.39987009
 H      5   2   1     1.097171615789   110.69195206    60.74475114
 H      5   2   1     1.097160804429   110.67867946   298.98305248
 H      5   2   1     1.101458346364   108.14900658   179.87142882
 P      1   2   3     2.323686896673   137.65905650    61.60881223
 C     15   1   2     1.816025230804   110.62136225    61.79715783
 C     15   1   2     1.816201014475   110.78148736   301.45246765
 C     15   1   2     1.819088624935   109.91203044   181.58471131
 H     16  15   1     1.096924318320   110.71810228   298.39705166
 H     16  15   1     1.097212203450   110.60925036    60.13412960
 H     16  15   1     1.100806590339   108.55566827   179.29518478
 H     17  15   1     1.096917020689   110.70058228    61.35388291
 H     17  15   1     1.097201929940   110.66995670   299.56729165
 H     17  15   1     1.100729502520   108.48152126   180.38912094
 H     18  15   1     1.097163766062   110.68753651    60.76475189
 H     18  15   1     1.097161243045   110.68275443   299.00778485
 H     18  15   1     1.101454181044   108.14765694   179.89105484

---------------------------
INTERNAL COORDINATES (A.U.)
---------------------------
 Co     0   0   0     0.000000000000     0.00000000     0.00000000
 P      1   0   0     4.391028328876     0.00000000     0.00000000
 C      2   1   0     3.431749553865   110.58269824     0.00000000
 C      2   1   3     3.432121771831   110.82584362   239.60806937
 C      2   1   3     3.437655346808   109.88259195   119.74014472
 H      3   2   1     2.072879229417   110.71173326   298.38057296
 H      3   2   1     2.073420206737   110.58398203    60.10117049
 H      3   2   1     2.080215049711   108.57341796   179.26280221
 H      4   2   1     2.072858065212   110.72022927    61.34593756
 H      4   2   1     2.073398210563   110.64337305   299.56488393
 H      4   2   1     2.080079944122   108.48125520   180.39987009
 H      5   2   1     2.073353875753   110.69195206    60.74475114
 H      5   2   1     2.073333445244   110.67867946   298.98305248
 H      5   2   1     2.081454622550   108.14900658   179.87142882
 P      1   2   3     4.391131855693   137.65905650    61.60881223
 C     15   1   2     3.431790338511   110.62136225    61.79715783
 C     15   1   2     3.432122521509   110.78148736   301.45246765
 C     15   1   2     3.437579314459   109.91203044   181.58471131
 H     16  15   1     2.072886551263   110.71810228   298.39705166
 H     16  15   1     2.073430575317   110.60925036    60.13412960
 H     16  15   1     2.080222982156   108.55566827   179.29518478
 H     17  15   1     2.072872760739   110.70058228    61.35388291
 H     17  15   1     2.073411161196   110.66995670   299.56729165
 H     17  15   1     2.080077307290   108.48152126   180.38912094
 H     18  15   1     2.073339041920   110.68753651    60.76475189
 H     18  15   1     2.073334274107   110.68275443   299.00778485
 H     18  15   1     2.081446751236   108.14765694   179.89105484

---------------------
BASIS SET INFORMATION
---------------------
There are 4 groups of distinct atoms

 Group   1 Type Co  : 17s12p7d2f1g contracted to 10s7p4d2f1g pattern {8111111111/6111111/4111/11/1}
 Group   2 Type P   : 14s9p3d1f contracted to 8s4p3d1f pattern {71111111/6111/111/1}
 Group   3 Type C   : 11s6p2d1f contracted to 6s3p2d1f pattern {611111/411/11/1}
 Group   4 Type H   : 5s2p1d contracted to 3s2p1d pattern {311/11/1}

Atom   0Co   basis set group =>   1
Atom   1P    basis set group =>   2
Atom   2C    basis set group =>   3
Atom   3C    basis set group =>   3
Atom   4C    basis set group =>   3
Atom   5H    basis set group =>   4
Atom   6H    basis set group =>   4
Atom   7H    basis set group =>   4
Atom   8H    basis set group =>   4
Atom   9H    basis set group =>   4
Atom  10H    basis set group =>   4
Atom  11H    basis set group =>   4
Atom  12H    basis set group =>   4
Atom  13H    basis set group =>   4
Atom  14P    basis set group =>   2
Atom  15C    basis set group =>   3
Atom  16C    basis set group =>   3
Atom  17C    basis set group =>   3
Atom  18H    basis set group =>   4
Atom  19H    basis set group =>   4
Atom  20H    basis set group =>   4
Atom  21H    basis set group =>   4
Atom  22H    basis set group =>   4
Atom  23H    basis set group =>   4
Atom  24H    basis set group =>   4
Atom  25H    basis set group =>   4
Atom  26H    basis set group =>   4
---------------------------------
AUXILIARY/J BASIS SET INFORMATION
---------------------------------
There are 4 groups of distinct atoms

 Group   1 Type Co  : 22s18p17d17f16g6h3i contracted to 22s18p17d17f16g6h3i pattern {1111111111111111111111/111111111111111111/11111111111111111/11111111111111111/1111111111111111/111111/111}
 Group   2 Type P   : 19s16p15d9f5g contracted to 19s16p15d9f5g pattern {1111111111111111111/1111111111111111/111111111111111/111111111/11111}
 Group   3 Type C   : 16s13p12d7f3g contracted to 16s13p12d7f3g pattern {1111111111111111/1111111111111/111111111111/1111111/111}
 Group   4 Type H   : 11s4p3d2f contracted to 11s4p3d2f pattern {11111111111/1111/111/11}

Atom   0Co   basis set group =>   1
Atom   1P    basis set group =>   2
Atom   2C    basis set group =>   3
Atom   3C    basis set group =>   3
Atom   4C    basis set group =>   3
Atom   5H    basis set group =>   4
Atom   6H    basis set group =>   4
Atom   7H    basis set group =>   4
Atom   8H    basis set group =>   4
Atom   9H    basis set group =>   4
Atom  10H    basis set group =>   4
Atom  11H    basis set group =>   4
Atom  12H    basis set group =>   4
Atom  13H    basis set group =>   4
Atom  14P    basis set group =>   2
Atom  15C    basis set group =>   3
Atom  16C    basis set group =>   3
Atom  17C    basis set group =>   3
Atom  18H    basis set group =>   4
Atom  19H    basis set group =>   4
Atom  20H    basis set group =>   4
Atom  21H    basis set group =>   4
Atom  22H    basis set group =>   4
Atom  23H    basis set group =>   4
Atom  24H    basis set group =>   4
Atom  25H    basis set group =>   4
Atom  26H    basis set group =>   4
---------------------------------
AUXILIARY/C BASIS SET INFORMATION
---------------------------------
There are 4 groups of distinct atoms

 Group   1 Type Co  : 22s18p17d17f16g6h3i contracted to 22s18p17d17f16g6h3i pattern {1111111111111111111111/111111111111111111/11111111111111111/11111111111111111/1111111111111111/111111/111}
 Group   2 Type P   : 19s16p15d9f5g contracted to 19s16p15d9f5g pattern {1111111111111111111/1111111111111111/111111111111111/111111111/11111}
 Group   3 Type C   : 16s13p12d7f3g contracted to 16s13p12d7f3g pattern {1111111111111111/1111111111111/111111111111/1111111/111}
 Group   4 Type H   : 11s4p3d2f contracted to 11s4p3d2f pattern {11111111111/1111/111/11}

Atom   0Co   basis set group =>   1
Atom   1P    basis set group =>   2
Atom   2C    basis set group =>   3
Atom   3C    basis set group =>   3
Atom   4C    basis set group =>   3
Atom   5H    basis set group =>   4
Atom   6H    basis set group =>   4
Atom   7H    basis set group =>   4
Atom   8H    basis set group =>   4
Atom   9H    basis set group =>   4
Atom  10H    basis set group =>   4
Atom  11H    basis set group =>   4
Atom  12H    basis set group =>   4
Atom  13H    basis set group =>   4
Atom  14P    basis set group =>   2
Atom  15C    basis set group =>   3
Atom  16C    basis set group =>   3
Atom  17C    basis set group =>   3
Atom  18H    basis set group =>   4
Atom  19H    basis set group =>   4
Atom  20H    basis set group =>   4
Atom  21H    basis set group =>   4
Atom  22H    basis set group =>   4
Atom  23H    basis set group =>   4
Atom  24H    basis set group =>   4
Atom  25H    basis set group =>   4
Atom  26H    basis set group =>   4
----------------------------------
AUXILIARY/JK BASIS SET INFORMATION
----------------------------------
There are 4 groups of distinct atoms

 Group   1 Type Co  : 22s18p17d17f16g6h3i contracted to 22s18p17d17f16g6h3i pattern {1111111111111111111111/111111111111111111/11111111111111111/11111111111111111/1111111111111111/111111/111}
 Group   2 Type P   : 19s16p15d9f5g contracted to 19s16p15d9f5g pattern {1111111111111111111/1111111111111111/111111111111111/111111111/11111}
 Group   3 Type C   : 16s13p12d7f3g contracted to 16s13p12d7f3g pattern {1111111111111111/1111111111111/111111111111/1111111/111}
 Group   4 Type H   : 11s4p3d2f contracted to 11s4p3d2f pattern {11111111111/1111/111/11}

Atom   0Co   basis set group =>   1
Atom   1P    basis set group =>   2
Atom   2C    basis set group =>   3
Atom   3C    basis set group =>   3
Atom   4C    basis set group =>   3
Atom   5H    basis set group =>   4
Atom   6H    basis set group =>   4
Atom   7H    basis set group =>   4
Atom   8H    basis set group =>   4
Atom   9H    basis set group =>   4
Atom  10H    basis set group =>   4
Atom  11H    basis set group =>   4
Atom  12H    basis set group =>   4
Atom  13H    basis set group =>   4
Atom  14P    basis set group =>   2
Atom  15C    basis set group =>   3
Atom  16C    basis set group =>   3
Atom  17C    basis set group =>   3
Atom  18H    basis set group =>   4
Atom  19H    basis set group =>   4
Atom  20H    basis set group =>   4
Atom  21H    basis set group =>   4
Atom  22H    basis set group =>   4
Atom  23H    basis set group =>   4
Atom  24H    basis set group =>   4
Atom  25H    basis set group =>   4
Atom  26H    basis set group =>   4


           ************************************************************
           *        Program running with 10 parallel MPI-processes    *
           *              working on a common directory               *
           ************************************************************
------------------------------------------------------------------------------
                           ORCA GTO INTEGRAL CALCULATION
                           -- RI-GTO INTEGRALS CHOSEN --
------------------------------------------------------------------------------
------------------------------------------------------------------------------
                   ___                                                        
                  /   \      - P O W E R E D   B Y -                         
                 /     \                                                     
                 |  |  |   _    _      __       _____    __    __             
                 |  |  |  | |  | |    /  \     |  _  \  |  |  /  |          
                  \  \/   | |  | |   /    \    | | | |  |  | /  /          
                 / \  \   | |__| |  /  /\  \   | |_| |  |  |/  /          
                |  |  |   |  __  | /  /__\  \  |    /   |      \           
                |  |  |   | |  | | |   __   |  |    \   |  |\   \          
                \     /   | |  | | |  |  |  |  | |\  \  |  | \   \       
                 \___/    |_|  |_| |__|  |__|  |_| \__\ |__|  \__/        
                                                                              
                      - O R C A' S   B I G   F R I E N D -                    
                                      &                                       
                       - I N T E G R A L  F E E D E R -                       
                                                                              
 v1 FN, 2020, v2 2021                                                         
------------------------------------------------------------------------------


Reading SHARK input file rho.SHARKINP.tmp ... ok
----------------------
SHARK INTEGRAL PACKAGE
----------------------

Number of atoms                             ...     27
Number of basis functions                   ...    602
Number of shells                            ...    236
Maximum angular momentum                    ...      4
Integral batch strategy                     ... SHARK/LIBINT Hybrid
RI-J (if used) integral strategy            ... SPLIT-RIJ (Revised 2003 algorithm where possible)
Printlevel                                  ...      1
Contraction scheme used                     ... SEGMENTED contraction
Coulomb Range Separation                    ... NOT USED
Exchange Range Separation                   ... NOT USED
Finite Nucleus Model                        ... NOT USED
Auxiliary Coulomb fitting basis             ... AVAILABLE
   # of basis functions in Aux-J            ...   3111
   # of shells in Aux-J                     ...    893
   Maximum angular momentum in Aux-J        ...      6
Auxiliary J/K fitting basis                 ... AVAILABLE
   # of basis functions in Aux-JK           ...   3111
   # of shells in Aux-JK                    ...    893
   Maximum angular momentum in Aux-JK       ...      6
Auxiliary Correlation fitting basis         ... AVAILABLE
   # of basis functions in Aux-C            ...   3111
   # of shells in Aux-C                     ...    893
   Maximum angular momentum in Aux-C        ...      6
Auxiliary 'external' fitting basis          ... NOT available
Integral threshold                          ...     1.000000e-12
Primitive cut-off                           ...     1.000000e-14
Primitive pair pre-selection threshold      ...     1.000000e-14

Calculating pre-screening integrals         ... done (  0.1 sec) Dimension = 236
Organizing shell pair data                  ... done (  0.1 sec)
Shell pair information
Total number of shell pairs                 ...     27966
Shell pairs after pre-screening             ...     21314
Total number of primitive shell pairs       ...     64204
Primitive shell pairs kept                  ...     36932
          la=0 lb=0:   5110 shell pairs
          la=1 lb=0:   6152 shell pairs
          la=1 lb=1:   1916 shell pairs
          la=2 lb=0:   3415 shell pairs
          la=2 lb=1:   2078 shell pairs
          la=2 lb=2:    615 shell pairs
          la=3 lb=0:    915 shell pairs
          la=3 lb=1:    562 shell pairs
          la=3 lb=2:    321 shell pairs
          la=3 lb=3:     48 shell pairs
          la=4 lb=0:     86 shell pairs
          la=4 lb=1:     51 shell pairs
          la=4 lb=2:     34 shell pairs
          la=4 lb=3:     10 shell pairs
          la=4 lb=4:      1 shell pairs

Calculating one electron integrals          ... done (  0.0 sec)
Calculating RI/J V-Matrix + Cholesky decomp.... done (  0.5 sec)
Calculating RI/JK V-Matrix + Cholesky decomp... done (  0.5 sec)
Calculating RI/C V-Matrix + Cholesky decomp.... done (  0.5 sec)
Calculating Nuclear repulsion               ... done (  0.0 sec) ENN=    929.516044725076 Eh

SHARK setup successfully completed in   2.5 seconds

Maximum memory used throughout the entire GTOINT-calculation: 59.1 MB


           ************************************************************
           *        Program running with 10 parallel MPI-processes    *
           *              working on a common directory               *
           ************************************************************
------------------------------------------------------------------------------
                          ORCA RELATIVISTIC HAMILTONIAN
------------------------------------------------------------------------------

Relativistic Method            ... DKH
Order of DKH treatment         ...   2
Treatment of potential         ... V(e,N)
Eps parameter for DKH          ...   0.00000000010000
Nucleus model                  ... Point Nucleus
Speed of light used            ... 137.03598950000000


            ************************************************
            *        DOUGLAS-KROLL-HESS HAMILTONIAN        *
            *   Programmed by FN according to literature   *
            *        procedures. Special thanks to         *
            *       B.A. Hess, M. Reiher and A. Wolf       *
            *     University Erlangen-Nuernberg/Bonn       *
            ************************************************

Uncontracting the basis (first version)        ... done
Number of contracted basis functions           ...  602
Number of uncontracted basis functions         ...  801
Initializing the DKH file                      ... done
Calculating the relativistic integrals         ... done
Storing DKH matrices                           ... done
Code used for DKH trafo                        ... ORCA
Computing the DKH transformation               ... done
Storing the transformation variables           ... done
Transforming V and pVp to p**2 space           ... done
First transformation of V and pVp              ... done
Second transformation of Veff                  ... done
Adding kinetic energy                          ... done
Back transformation of Veff to r-space         ... done
Recovering DKH matrices                        ... done
Recontracting the H-matrix (first version)     ... done
Computing the DKH correction to the H-matrix   ... done
Reading the original H-matrix                  ... done
Adding DKH correction to the H-matrix          ... done
Storing the new modified H-matrix              ... done

Maximum memory used throughout the entire REL-calculation: 82.8 MB


           ************************************************************
           *        Program running with 10 parallel MPI-processes    *
           *              working on a common directory               *
           ************************************************************
-------------------------------------------------------------------------------
                                 ORCA SCF
-------------------------------------------------------------------------------

------------
SCF SETTINGS
------------
Hamiltonian:
 Ab initio Hamiltonian  Method          .... Hartree-Fock(GTOs)
 RI-approximation to the Coulomb term is turned on
   Number of AuxJ basis functions       .... 3111
   RIJ-COSX (HFX calculated with COS-X)).... on

Relativistic Settings:
 Scalar relativistic method             .... Douglas-Kroll-Hess
 Order of DKH procedure    Order        ....    2
 Mode of DKH-treatment                  .... V=V(e,N)
 Speed of light used       Velit        ....       137.035989
 Cutoff-constant           Eps          ....            1e-10 


General Settings:
 Integral files         IntName         .... rho
 Hartree-Fock type      HFTyp           .... CASSCF
 Total Charge           Charge          ....    2
 Multiplicity           Mult            ....    4
 Number of Electrons    NEL             ....  109
 Basis Dimension        Dim             ....  602
 Nuclear Repulsion      ENuc            ....    929.5160447251 Eh


Diagonalization of the overlap matrix:
Smallest eigenvalue                        ... 3.688e-04
Time for diagonalization                   ...    0.069 sec
Threshold for overlap eigenvalues          ... 1.000e-08
Number of eigenvalues below threshold      ... 0
Time for construction of square roots      ...    0.036 sec
Total time needed                          ...    0.107 sec

---------------------
INITIAL GUESS: MOREAD
---------------------
Guess MOs are being read from file: orb.gbw
Input Geometry matches current geometry (good)
Input basis set matches current basis set (good)
MOs were renormalized
Gram-Schmidt orthogonalization of all MOs with pivot on actives
                      ------------------
                      INITIAL GUESS DONE (   1.4 sec)
                      ------------------
--------------------
COSX GRID GENERATION
--------------------

GRIDX 1
-------
General Integration Accuracy     IntAcc      ... 3.816
Radial Grid Type                 RadialGrid  ... OptM3 with GC (2021)
Angular Grid (max. ang.)         AngularGrid ... 1 (Lebedev-50)
Angular grid pruning method      GridPruning ... 4 (adaptive)
Weight generation scheme         WeightScheme... Becke
Basis function cutoff            BFCut       ... 1.0000e-12
Integration weight cutoff        WCut        ... 1.0000e-14
Angular grids for H and He will be reduced by one unit
Partially contracted basis set               ... on
Rotationally invariant grid construction     ... off

Total number of grid points                  ...    14982
Total number of batches                      ...      247
Average number of points per batch           ...       60
Average number of grid points per atom       ...      555

GRIDX 2
-------
General Integration Accuracy     IntAcc      ... 4.020
Radial Grid Type                 RadialGrid  ... OptM3 with GC (2021)
Angular Grid (max. ang.)         AngularGrid ... 2 (Lebedev-110)
Angular grid pruning method      GridPruning ... 4 (adaptive)
Weight generation scheme         WeightScheme... Becke
Basis function cutoff            BFCut       ... 1.0000e-12
Integration weight cutoff        WCut        ... 1.0000e-14
Angular grids for H and He will be reduced by one unit
Partially contracted basis set               ... on
Rotationally invariant grid construction     ... off

Total number of grid points                  ...    30696
Total number of batches                      ...      495
Average number of points per batch           ...       62
Average number of grid points per atom       ...     1137

GRIDX 3
-------
General Integration Accuracy     IntAcc      ... 4.338
Radial Grid Type                 RadialGrid  ... OptM3 with GC (2021)
Angular Grid (max. ang.)         AngularGrid ... 3 (Lebedev-194)
Angular grid pruning method      GridPruning ... 4 (adaptive)
Weight generation scheme         WeightScheme... Becke
Basis function cutoff            BFCut       ... 1.0000e-12
Integration weight cutoff        WCut        ... 1.0000e-14
Angular grids for H and He will be reduced by one unit
Partially contracted basis set               ... on
Rotationally invariant grid construction     ... off

Total number of grid points                  ...    67955
Total number of batches                      ...     1076
Average number of points per batch           ...       63
Average number of grid points per atom       ...     2517

Time for X-Grid setup             =    0.464 sec



 ... the calculation is a CASSCF calculation -I'm leaving here GOOD LUCK!!!



           ************************************************************
           *        Program running with 10 parallel MPI-processes    *
           *              working on a common directory               *
           ************************************************************
-------------------------------------------------------------------------------
                              ORCA-CASSCF
-------------------------------------------------------------------------------

Setting up the integral package       ... done
Setting up the integral package (RI)  ... done
Building the CAS space                ... done (10 configurations for Mult=4)
Building the CAS space                ... done (30 configurations for Mult=2)

SYSTEM-SPECIFIC SETTINGS:
Number of active electrons          ...    7
Number of active orbitals           ...    5
Total number of electrons           ...  109
Total number of orbitals            ...  602
Total number aux. functions         ... 3111

Determined orbital ranges:
   Internal       0 -   50 (  51 orbitals)
   Active        51 -   55 (   5 orbitals)
   External      56 -  601 ( 546 orbitals)
Number of rotation parameters      ...  30831

CI-STEP:
CI strategy                         ... General CI
Number of multiplicity blocks       ...    2
BLOCK  1 WEIGHT=   0.5000
  Multiplicity                      ...    4
  #(Configurations)                 ...   10
  #(CSFs)                           ...   10
  #(Roots)                          ...   10
    ROOT=0 WEIGHT=    0.050000
    ROOT=1 WEIGHT=    0.050000
    ROOT=2 WEIGHT=    0.050000
    ROOT=3 WEIGHT=    0.050000
    ROOT=4 WEIGHT=    0.050000
    ROOT=5 WEIGHT=    0.050000
    ROOT=6 WEIGHT=    0.050000
    ROOT=7 WEIGHT=    0.050000
    ROOT=8 WEIGHT=    0.050000
    ROOT=9 WEIGHT=    0.050000

BLOCK  2 WEIGHT=   0.5000
  Multiplicity                      ...    2
  #(Configurations)                 ...   30
  #(CSFs)                           ...   40
  #(Roots)                          ...   40
    ROOT=0 WEIGHT=    0.012500
    ROOT=1 WEIGHT=    0.012500
    ROOT=2 WEIGHT=    0.012500
    ROOT=3 WEIGHT=    0.012500
    ROOT=4 WEIGHT=    0.012500
    ROOT=5 WEIGHT=    0.012500
    ROOT=6 WEIGHT=    0.012500
    ROOT=7 WEIGHT=    0.012500
    ROOT=8 WEIGHT=    0.012500
    ROOT=9 WEIGHT=    0.012500
    ROOT=10 WEIGHT=    0.012500
    ROOT=11 WEIGHT=    0.012500
    ROOT=12 WEIGHT=    0.012500
    ROOT=13 WEIGHT=    0.012500
    ROOT=14 WEIGHT=    0.012500
    ROOT=15 WEIGHT=    0.012500
    ROOT=16 WEIGHT=    0.012500
    ROOT=17 WEIGHT=    0.012500
    ROOT=18 WEIGHT=    0.012500
    ROOT=19 WEIGHT=    0.012500
    ROOT=20 WEIGHT=    0.012500
    ROOT=21 WEIGHT=    0.012500
    ROOT=22 WEIGHT=    0.012500
    ROOT=23 WEIGHT=    0.012500
    ROOT=24 WEIGHT=    0.012500
    ROOT=25 WEIGHT=    0.012500
    ROOT=26 WEIGHT=    0.012500
    ROOT=27 WEIGHT=    0.012500
    ROOT=28 WEIGHT=    0.012500
    ROOT=29 WEIGHT=    0.012500
    ROOT=30 WEIGHT=    0.012500
    ROOT=31 WEIGHT=    0.012500
    ROOT=32 WEIGHT=    0.012500
    ROOT=33 WEIGHT=    0.012500
    ROOT=34 WEIGHT=    0.012500
    ROOT=35 WEIGHT=    0.012500
    ROOT=36 WEIGHT=    0.012500
    ROOT=37 WEIGHT=    0.012500
    ROOT=38 WEIGHT=    0.012500
    ROOT=39 WEIGHT=    0.012500

  PrintLevel                        ...    1
  N(GuessMat)                       ...       512
  MaxDim(CI)                        ...        10
  MaxIter(CI)                       ...        64
  Energy Tolerance CI               ...  1.00e-09
  Residual Tolerance CI             ...  1.00e-09
  Shift(CI)                         ...  1.00e-04

INTEGRAL-TRANSFORMATION-STEP:
  Algorithm                         ... RI-MO

ORBITAL-IMPROVEMENT-STEP:
  Algorithm                         ... SuperCI
  Default Parametrization           ... CAYLEY
  Act-Act rotations                 ... depends on algorithm used
  FreezeIE                          ... 95.00% of ||g||
  Until reaching FreezeIE rotations with active orbitals are damped. 

  Approx. Fock at                   ... 0.000000e+00 density convergence
  Level shift                       ... energy gap dependent. Minimum=1.000
  Switch step at gradient           ...  3.00e-02 
  Switch step at iteration          ...        50   
  Switch step to                    ... DIIS    

SCF-SETTINGS:
  Incremental                       ... off
  RIJCOSX approximation             ... on
  UseFinalGrid                      ... on
  RI-JK approximation               ... off
  AO integral handling              ... DIRECT
  Integral Neglect Thresh           ...  1.00e-12
  Primitive cutoff TCut             ...  1.00e-14
  Energy convergence tolerance      ...  1.00e-08
  Orbital gradient convergence      ...  1.00e-05
  Max. number of iterations         ...       100  


PROPERTIES-SETTINGS:
  Spin orbit coupling               ... true
  GTensor                           ... true

FINAL ORBITALS:
  Active   Orbitals                 ... d-orbitals 
  Internal Orbitals                 ... canonical 
  External Orbitals                 ... canonical 

------------------
CAS-SCF ITERATIONS
------------------


MACRO-ITERATION   1: 
   --- Canonicalize Internal Space
   --- Canonicalize External Space
   --- Inactive Energy E0 = -2287.19512131 Eh
CI-ITERATION   0: 
 -2312.356419542   0.000000000000 (    0.00)
 -2312.355208042   0.000000000000
 -2312.348382617   0.000000000000
 -2312.348169477   0.000000000000
 -2312.347015552   0.000000000000
 -2312.346123250   0.000000000000
 -2312.342585837   0.000000000000
 -2312.275961395   0.000000000000
 -2312.267040100   0.000000000000
 -2312.260678423   0.000000000000
   CI-PROBLEM SOLVED
   DENSITIES MADE
CI-ITERATION   0: 
 -2312.272843279   0.000000000000 (    0.00)
 -2312.272714379   0.000000000000
 -2312.272483609   0.000000000000
 -2312.271571127   0.000000000000
 -2312.270998332   0.000000000000
 -2312.268532909   0.000000000000
 -2312.268013256   0.000000000000
 -2312.264650903   0.000000000000
 -2312.264263913   0.000000000000
 -2312.250031106   0.000000000000
 -2312.249897663   0.000000000000
 -2312.249880869   0.000000000000
 -2312.246072082   0.000000000000
 -2312.245739542   0.000000000000
 -2312.244306412   0.000000000000
 -2312.243737816   0.000000000000
 -2312.239316803   0.000000000000
 -2312.238947334   0.000000000000
 -2312.238324084   0.000000000000
 -2312.238317722   0.000000000000
 -2312.236249900   0.000000000000
 -2312.232437883   0.000000000000
 -2312.231811077   0.000000000000
 -2312.228922248   0.000000000000
 -2312.228862704   0.000000000000
 -2312.227218665   0.000000000000
 -2312.226210207   0.000000000000
 -2312.225389112   0.000000000000
 -2312.164885906   0.000000000000
 -2312.163836190   0.000000000000
 -2312.160341570   0.000000000000
 -2312.159596426   0.000000000000
 -2312.158635560   0.000000000000
 -2312.156243483   0.000000000000
 -2312.156228969   0.000000000000
 -2312.060516805   0.000000000000
 -2312.057357772   0.000000000000
 -2312.056010672   0.000000000000
 -2312.041020452   0.000000000000
 -2312.040350382   0.000000000000
   CI-PROBLEM SOLVED
   DENSITIES MADE

                 <<<<<<<<<<<<<<<<<<INITIAL CI STATE CHECK>>>>>>>>>>>>>>>>>>

BLOCK  1 MULT= 4 NROOTS=10 
ROOT   0:  E=   -2312.3564195423 Eh
      0.30613 [     7]: 21121
      0.25511 [     0]: 11122
      0.11833 [     9]: 22111
      0.11152 [     2]: 11221
      0.10264 [     1]: 11212
      0.04657 [     4]: 12121
      0.03467 [     3]: 12112
      0.01412 [     6]: 21112
      0.00641 [     5]: 12211
      0.00449 [     8]: 21211
ROOT   1:  E=   -2312.3552080419 Eh  0.033 eV    265.9 cm**-1
      0.43228 [     8]: 21211
      0.17576 [     1]: 11212
      0.16118 [     2]: 11221
      0.09927 [     7]: 21121
      0.05350 [     3]: 12112
      0.04735 [     0]: 11122
      0.01832 [     4]: 12121
      0.00740 [     6]: 21112
      0.00370 [     5]: 12211
ROOT   2:  E=   -2312.3483826167 Eh  0.219 eV   1763.9 cm**-1
      0.53667 [     4]: 12121
      0.16311 [     0]: 11122
      0.11076 [     9]: 22111
      0.06140 [     3]: 12112
      0.05577 [     6]: 21112
      0.02837 [     7]: 21121
      0.02132 [     5]: 12211
      0.01399 [     1]: 11212
      0.00859 [     2]: 11221
ROOT   3:  E=   -2312.3481694773 Eh  0.224 eV   1810.7 cm**-1
      0.37600 [     2]: 11221
      0.21396 [     5]: 12211
      0.20779 [     8]: 21211
      0.15060 [     7]: 21121
      0.02119 [     6]: 21112
      0.01982 [     9]: 22111
      0.00362 [     4]: 12121
      0.00293 [     1]: 11212
      0.00259 [     0]: 11122
ROOT   4:  E=   -2312.3470155517 Eh  0.256 eV   2063.9 cm**-1
      0.28993 [     1]: 11212
      0.22307 [     9]: 22111
      0.15458 [     6]: 21112
      0.07768 [     7]: 21121
      0.06326 [     0]: 11122
      0.05931 [     3]: 12112
      0.05350 [     4]: 12121
      0.04221 [     5]: 12211
      0.02275 [     8]: 21211
      0.01372 [     2]: 11221
ROOT   5:  E=   -2312.3461232499 Eh  0.280 eV   2259.8 cm**-1
      0.34404 [     1]: 11212
      0.15910 [     8]: 21211
      0.13716 [     9]: 22111
      0.09788 [     7]: 21121
      0.07985 [     5]: 12211
      0.05887 [     6]: 21112
      0.05345 [     2]: 11221
      0.03415 [     0]: 11122
      0.02559 [     4]: 12121
      0.00992 [     3]: 12112
ROOT   6:  E=   -2312.3425858371 Eh  0.376 eV   3036.1 cm**-1
      0.69633 [     3]: 12112
      0.21077 [     9]: 22111
      0.02327 [     8]: 21211
      0.01682 [     1]: 11212
      0.01633 [     6]: 21112
      0.01451 [     2]: 11221
      0.01395 [     5]: 12211
      0.00709 [     0]: 11122
ROOT   7:  E=   -2312.2759613945 Eh  2.189 eV  17658.5 cm**-1
      0.36912 [     5]: 12211
      0.29711 [     6]: 21112
      0.16134 [     2]: 11221
      0.07976 [     0]: 11122
      0.04377 [     1]: 11212
      0.02056 [     8]: 21211
      0.01868 [     4]: 12121
      0.00539 [     9]: 22111
      0.00425 [     7]: 21121
ROOT   8:  E=   -2312.2670400998 Eh  2.432 eV  19616.5 cm**-1
      0.24176 [     5]: 12211
      0.21881 [     6]: 21112
      0.15967 [     7]: 21121
      0.11802 [     4]: 12121
      0.09933 [     9]: 22111
      0.07904 [     3]: 12112
      0.04911 [     2]: 11221
      0.02393 [     8]: 21211
      0.01009 [     1]: 11212
ROOT   9:  E=   -2312.2606784226 Eh  2.605 eV  21012.7 cm**-1
      0.34735 [     0]: 11122
      0.17810 [     4]: 12121
      0.15581 [     6]: 21112
      0.10581 [     8]: 21211
      0.07616 [     7]: 21121
      0.07414 [     9]: 22111
      0.05058 [     2]: 11221
      0.00772 [     5]: 12211
      0.00431 [     3]: 12112

BLOCK  2 MULT= 2 NROOTS=40 
ROOT   0:  E=   -2312.2728432791 Eh
      0.16057 [    10]: 12121
      0.12484 [    26]: 22111
      0.09843 [    14]: 20122
      0.09355 [     4]: 10222
      0.08861 [     6]: 11212
      0.07936 [    21]: 21211
      0.07236 [     7]: 11221
      0.06186 [    27]: 22120
      0.04849 [    19]: 21121
      0.04016 [     9]: 12112
      0.03481 [     1]: 02122
      0.02093 [    12]: 12211
      0.01899 [     8]: 12022
      0.01621 [    15]: 20212
      0.00837 [    11]: 12202
      0.00693 [     0]: 01222
      0.00641 [    16]: 20221
      0.00460 [    18]: 21112
      0.00397 [     5]: 11122
      0.00346 [    22]: 21220
ROOT   1:  E=   -2312.2727143791 Eh  0.004 eV     28.3 cm**-1
      0.21481 [    22]: 21220
      0.19997 [     7]: 11221
      0.10966 [    16]: 20221
      0.09732 [     9]: 12112
      0.04916 [    17]: 21022
      0.04346 [    20]: 21202
      0.03950 [    28]: 22201
      0.03656 [     4]: 10222
      0.02525 [     1]: 02122
      0.01921 [     0]: 01222
      0.01856 [    19]: 21121
      0.01747 [     6]: 11212
      0.01741 [    26]: 22111
      0.01661 [    13]: 12220
      0.01647 [     3]: 02221
      0.01491 [    23]: 22012
      0.01154 [    21]: 21211
      0.00838 [    12]: 12211
      0.00778 [    24]: 22021
      0.00570 [     2]: 02212
      0.00490 [     8]: 12022
      0.00404 [    27]: 22120
      0.00359 [    25]: 22102
      0.00353 [    18]: 21112
      0.00336 [    10]: 12121
      0.00317 [    14]: 20122
      0.00310 [     5]: 11122
ROOT   2:  E=   -2312.2724836090 Eh  0.010 eV     78.9 cm**-1
      0.28828 [    21]: 21211
      0.12218 [    16]: 20221
      0.07013 [     5]: 11122
      0.05748 [     2]: 02212
      0.05532 [     6]: 11212
      0.04874 [    26]: 22111
      0.04631 [     7]: 11221
      0.03930 [    15]: 20212
      0.03626 [     0]: 01222
      0.03406 [    10]: 12121
      0.03117 [    23]: 22012
      0.02746 [    12]: 12211
      0.02168 [    24]: 22021
      0.02049 [     8]: 12022
      0.01907 [    29]: 22210
      0.01745 [     9]: 12112
      0.01445 [    13]: 12220
      0.01097 [    27]: 22120
      0.00837 [    19]: 21121
      0.00790 [     1]: 02122
      0.00529 [    22]: 21220
      0.00447 [     3]: 02221
      0.00436 [    17]: 21022
      0.00392 [    28]: 22201
      0.00291 [     4]: 10222
ROOT   3:  E=   -2312.2715711272 Eh  0.035 eV    279.2 cm**-1
      0.17529 [     6]: 11212
      0.13610 [    27]: 22120
      0.11402 [     5]: 11122
      0.11270 [    18]: 21112
      0.07668 [     7]: 11221
      0.07182 [     9]: 12112
      0.04658 [    26]: 22111
      0.03680 [    25]: 22102
      0.03068 [     4]: 10222
      0.02926 [    14]: 20122
      0.02722 [    29]: 22210
      0.02518 [    10]: 12121
      0.02085 [     0]: 01222
      0.01804 [    19]: 21121
      0.00988 [    13]: 12220
      0.00924 [    28]: 22201
      0.00871 [    12]: 12211
      0.00822 [    15]: 20212
      0.00810 [    23]: 22012
      0.00768 [    16]: 20221
      0.00760 [    20]: 21202
      0.00418 [    17]: 21022
      0.00414 [    21]: 21211
      0.00346 [     1]: 02122
      0.00299 [     8]: 12022
ROOT   4:  E=   -2312.2709983319 Eh  0.050 eV    404.9 cm**-1
      0.13175 [     6]: 11212
      0.12145 [    21]: 21211
      0.09932 [    15]: 20212
      0.08839 [     5]: 11122
      0.07966 [    10]: 12121
      0.06772 [    26]: 22111
      0.06731 [     7]: 11221
      0.05986 [    19]: 21121
      0.04770 [    24]: 22021
      0.04016 [     1]: 02122
      0.03727 [    20]: 21202
      0.03612 [    27]: 22120
      0.02612 [     2]: 02212
      0.01919 [    16]: 20221
      0.01467 [     9]: 12112
      0.00940 [    11]: 12202
      0.00912 [    12]: 12211
      0.00865 [     3]: 02221
      0.00675 [    18]: 21112
      0.00614 [    28]: 22201
      0.00555 [     4]: 10222
      0.00438 [    29]: 22210
      0.00372 [    17]: 21022
      0.00350 [    25]: 22102
ROOT   5:  E=   -2312.2685329092 Eh  0.117 eV    946.0 cm**-1
      0.30314 [    19]: 21121
      0.15638 [     0]: 01222
      0.06369 [    21]: 21211
      0.05337 [     5]: 11122
      0.05157 [    20]: 21202
      0.05094 [     9]: 12112
      0.04998 [    28]: 22201
      0.04856 [    24]: 22021
      0.03895 [    26]: 22111
      0.02686 [    13]: 12220
      0.02264 [     8]: 12022
      0.02239 [    11]: 12202
      0.01909 [     4]: 10222
      0.01750 [     6]: 11212
      0.01333 [     2]: 02212
      0.01315 [     1]: 02122
      0.01033 [     7]: 11221
      0.00917 [    22]: 21220
      0.00620 [    23]: 22012
      0.00513 [    17]: 21022
      0.00511 [    25]: 22102
      0.00405 [    18]: 21112
ROOT   6:  E=   -2312.2680132565 Eh  0.131 eV   1060.1 cm**-1
      0.17132 [    16]: 20221
      0.10152 [    25]: 22102
      0.09382 [    22]: 21220
      0.07417 [    11]: 12202
      0.06768 [     1]: 02122
      0.06567 [     9]: 12112
      0.05686 [     4]: 10222
      0.04481 [    10]: 12121
      0.04320 [     6]: 11212
      0.03959 [    26]: 22111
      0.03611 [    21]: 21211
      0.03317 [     5]: 11122
      0.03164 [     7]: 11221
      0.02715 [    28]: 22201
      0.01714 [     8]: 12022
      0.01655 [     3]: 02221
      0.01638 [    19]: 21121
      0.01316 [    20]: 21202
      0.01201 [    17]: 21022
      0.01154 [    27]: 22120
      0.00757 [    24]: 22021
      0.00579 [    13]: 12220
      0.00339 [     0]: 01222
      0.00271 [    14]: 20122
ROOT   7:  E=   -2312.2646509028 Eh  0.223 eV   1798.0 cm**-1
      0.16007 [     9]: 12112
      0.13279 [     7]: 11221
      0.11379 [    19]: 21121
      0.09749 [    10]: 12121
      0.08992 [    22]: 21220
      0.07898 [     6]: 11212
      0.06923 [    18]: 21112
      0.04718 [     5]: 11122
      0.03873 [    21]: 21211
      0.03858 [    26]: 22111
      0.01771 [     0]: 01222
      0.01628 [    24]: 22021
      0.01512 [     2]: 02212
      0.01334 [    28]: 22201
      0.01197 [    27]: 22120
      0.01184 [    20]: 21202
      0.01117 [    25]: 22102
      0.01109 [    13]: 12220
      0.00594 [    23]: 22012
      0.00574 [    17]: 21022
      0.00507 [     8]: 12022
      0.00284 [     4]: 10222
ROOT   8:  E=   -2312.2642639125 Eh  0.233 eV   1883.0 cm**-1
      0.14753 [     6]: 11212
      0.10529 [    21]: 21211
      0.09837 [    26]: 22111
      0.08043 [    24]: 22021
      0.06388 [    27]: 22120
      0.06042 [     8]: 12022
      0.05560 [     7]: 11221
      0.05025 [     5]: 11122
      0.04299 [     1]: 02122
      0.03985 [    20]: 21202
      0.03970 [     0]: 01222
      0.02917 [    22]: 21220
      0.02790 [    10]: 12121
      0.02516 [    12]: 12211
      0.02249 [     3]: 02221
      0.02075 [     9]: 12112
      0.02005 [    19]: 21121
      0.01558 [    28]: 22201
      0.00857 [    16]: 20221
      0.00819 [     4]: 10222
      0.00761 [    11]: 12202
      0.00744 [    23]: 22012
      0.00615 [    17]: 21022
      0.00610 [    18]: 21112
      0.00496 [     2]: 02212
ROOT   9:  E=   -2312.2500311062 Eh  0.621 eV   5006.7 cm**-1
      0.12722 [    12]: 12211
      0.12524 [     7]: 11221
      0.10494 [     6]: 11212
      0.10242 [    19]: 21121
      0.08153 [    27]: 22120
      0.06509 [    13]: 12220
      0.05762 [    26]: 22111
      0.05583 [     3]: 02221
      0.05479 [     9]: 12112
      0.03199 [    28]: 22201
      0.02738 [    10]: 12121
      0.02364 [    11]: 12202
      0.02296 [    18]: 21112
      0.01675 [     5]: 11122
      0.01553 [    25]: 22102
      0.01429 [    22]: 21220
      0.01315 [     1]: 02122
      0.01281 [    29]: 22210
      0.01096 [    21]: 21211
      0.00743 [     4]: 10222
      0.00714 [    23]: 22012
      0.00692 [     2]: 02212
      0.00578 [    14]: 20122
      0.00405 [    20]: 21202
ROOT  10:  E=   -2312.2498976627 Eh  0.624 eV   5036.0 cm**-1
      0.15855 [     4]: 10222
      0.10284 [     6]: 11212
      0.08355 [    29]: 22210
      0.07458 [    15]: 20212
      0.07317 [    26]: 22111
      0.06576 [    19]: 21121
      0.06229 [     7]: 11221
      0.06148 [     5]: 11122
      0.04466 [     9]: 12112
      0.03721 [    16]: 20221
      0.03197 [    10]: 12121
      0.03051 [    23]: 22012
      0.03016 [    27]: 22120
      0.02597 [    21]: 21211
      0.02448 [     2]: 02212
      0.01460 [    13]: 12220
      0.01379 [    18]: 21112
      0.01178 [    12]: 12211
      0.01148 [    22]: 21220
      0.01110 [    14]: 20122
      0.01007 [     8]: 12022
      0.00733 [     1]: 02122
      0.00442 [     0]: 01222
ROOT  11:  E=   -2312.2498808687 Eh  0.625 eV   5039.7 cm**-1
      0.15550 [    21]: 21211
      0.13349 [    12]: 12211
      0.10412 [     2]: 02212
      0.09627 [    10]: 12121
      0.09457 [    26]: 22111
      0.06219 [     7]: 11221
      0.04529 [    11]: 12202
      0.03803 [    15]: 20212
      0.02569 [    25]: 22102
      0.02433 [     0]: 01222
      0.02115 [    16]: 20221
      0.02096 [    14]: 20122
      0.01768 [    18]: 21112
      0.01510 [    24]: 22021
      0.01483 [     4]: 10222
      0.01468 [     5]: 11122
      0.01438 [    22]: 21220
      0.01400 [    28]: 22201
      0.01197 [    20]: 21202
      0.01195 [    13]: 12220
      0.01195 [     6]: 11212
      0.01176 [     9]: 12112
      0.01148 [    29]: 22210
      0.01072 [     1]: 02122
      0.00559 [    27]: 22120
      0.00459 [    19]: 21121
      0.00446 [     3]: 02221
ROOT  12:  E=   -2312.2460720824 Eh  0.728 eV   5875.6 cm**-1
      0.17475 [    19]: 21121
      0.08722 [    29]: 22210
      0.08483 [    18]: 21112
      0.07294 [     0]: 01222
      0.07131 [     6]: 11212
      0.07057 [     5]: 11122
      0.06487 [     4]: 10222
      0.05284 [    13]: 12220
      0.04976 [    26]: 22111
      0.04139 [     9]: 12112
      0.03729 [     2]: 02212
      0.02874 [    21]: 21211
      0.02270 [    10]: 12121
      0.02259 [    16]: 20221
      0.01824 [    12]: 12211
      0.01532 [     3]: 02221
      0.01432 [    15]: 20212
      0.01313 [    24]: 22021
      0.01223 [     7]: 11221
      0.00939 [    22]: 21220
      0.00883 [    20]: 21202
      0.00785 [    28]: 22201
      0.00627 [    17]: 21022
      0.00472 [     1]: 02122
      0.00284 [    14]: 20122
ROOT  13:  E=   -2312.2457395420 Eh  0.738 eV   5948.6 cm**-1
      0.13410 [    19]: 21121
      0.12894 [    11]: 12202
      0.09189 [     2]: 02212
      0.08181 [     5]: 11122
      0.07404 [    28]: 22201
      0.06722 [    18]: 21112
      0.06294 [    21]: 21211
      0.05903 [     7]: 11221
      0.05378 [     6]: 11212
      0.04967 [    25]: 22102
      0.04665 [    26]: 22111
      0.03227 [     9]: 12112
      0.01865 [     0]: 01222
      0.01671 [     4]: 10222
      0.01535 [    16]: 20221
      0.01347 [     8]: 12022
      0.01115 [    17]: 21022
      0.00977 [    15]: 20212
      0.00744 [    29]: 22210
      0.00727 [    27]: 22120
      0.00725 [    10]: 12121
      0.00301 [     1]: 02122
      0.00301 [     3]: 02221
ROOT  14:  E=   -2312.2443064118 Eh  0.777 eV   6263.1 cm**-1
      0.19981 [    10]: 12121
      0.10577 [     6]: 11212
      0.08257 [    26]: 22111
      0.06634 [    29]: 22210
      0.06629 [    12]: 12211
      0.05196 [    15]: 20212
      0.04847 [     5]: 11122
      0.04619 [     3]: 02221
      0.03858 [     7]: 11221
      0.03172 [     2]: 02212
      0.02938 [     1]: 02122
      0.02855 [    21]: 21211
      0.02294 [    16]: 20221
      0.02252 [    23]: 22012
      0.02246 [    18]: 21112
      0.02193 [    24]: 22021
      0.02161 [     8]: 12022
      0.02140 [    17]: 21022
      0.02064 [    19]: 21121
      0.01845 [    22]: 21220
      0.00813 [    27]: 22120
      0.00566 [    11]: 12202
      0.00481 [     9]: 12112
      0.00462 [    28]: 22201
      0.00260 [    14]: 20122
ROOT  15:  E=   -2312.2437378164 Eh  0.792 eV   6387.9 cm**-1
      0.17355 [     9]: 12112
      0.14529 [    12]: 12211
      0.10211 [    10]: 12121
      0.08084 [    24]: 22021
      0.06887 [    20]: 21202
      0.05905 [     7]: 11221
      0.04884 [    15]: 20212
      0.04153 [    11]: 12202
      0.04017 [    18]: 21112
      0.03560 [     4]: 10222
      0.02900 [     3]: 02221
      0.02794 [    17]: 21022
      0.02378 [    21]: 21211
      0.02313 [    22]: 21220
      0.02160 [    25]: 22102
      0.01741 [     5]: 11122
      0.01431 [     0]: 01222
      0.01154 [     6]: 11212
      0.00686 [    13]: 12220
      0.00625 [    14]: 20122
      0.00550 [    29]: 22210
      0.00514 [    27]: 22120
      0.00450 [    23]: 22012
      0.00395 [    19]: 21121
ROOT  16:  E=   -2312.2393168032 Eh  0.912 eV   7358.2 cm**-1
      0.16237 [    18]: 21112
      0.09834 [    10]: 12121
      0.08901 [    26]: 22111
      0.06657 [    27]: 22120
      0.06041 [     7]: 11221
      0.05206 [    11]: 12202
      0.05005 [     6]: 11212
      0.04231 [     9]: 12112
      0.03816 [     4]: 10222
      0.03531 [     5]: 11122
      0.03253 [     0]: 01222
      0.02782 [    15]: 20212
      0.02766 [    28]: 22201
      0.02678 [    19]: 21121
      0.02592 [    12]: 12211
      0.02315 [    20]: 21202
      0.02027 [    25]: 22102
      0.01879 [    23]: 22012
      0.01720 [    13]: 12220
      0.01690 [    21]: 21211
      0.01646 [     3]: 02221
      0.01193 [    14]: 20122
      0.01176 [     1]: 02122
      0.00927 [     2]: 02212
      0.00582 [    29]: 22210
      0.00579 [    16]: 20221
      0.00295 [    22]: 21220
      0.00291 [    24]: 22021
ROOT  17:  E=   -2312.2389473338 Eh  0.922 eV   7439.3 cm**-1
      0.13518 [     6]: 11212
      0.11865 [    20]: 21202
      0.11340 [     7]: 11221
      0.09178 [    26]: 22111
      0.06013 [    11]: 12202
      0.05790 [    18]: 21112
      0.05456 [    10]: 12121
      0.05337 [     5]: 11122
      0.04966 [    29]: 22210
      0.04595 [     9]: 12112
      0.03910 [    12]: 12211
      0.03541 [    19]: 21121
      0.03349 [    22]: 21220
      0.02739 [    25]: 22102
      0.01895 [    27]: 22120
      0.01594 [     8]: 12022
      0.01447 [     0]: 01222
      0.00646 [     3]: 02221
      0.00593 [    13]: 12220
      0.00399 [     4]: 10222
      0.00378 [    21]: 21211
      0.00339 [    23]: 22012
      0.00329 [     1]: 02122
      0.00310 [    15]: 20212
ROOT  18:  E=   -2312.2383240837 Eh  0.939 eV   7576.1 cm**-1
      0.15170 [    21]: 21211
      0.11381 [    23]: 22012
      0.07541 [     8]: 12022
      0.06360 [    12]: 12211
      0.06191 [     0]: 01222
      0.05174 [    25]: 22102
      0.05067 [     7]: 11221
      0.04977 [     9]: 12112
      0.04958 [     1]: 02122
      0.03669 [     2]: 02212
      0.03103 [    26]: 22111
      0.02972 [    22]: 21220
      0.02851 [    11]: 12202
      0.02795 [    29]: 22210
      0.02556 [     5]: 11122
      0.02528 [    16]: 20221
      0.02487 [    18]: 21112
      0.02421 [    10]: 12121
      0.01967 [    24]: 22021
      0.01889 [     6]: 11212
      0.01381 [    17]: 21022
      0.00807 [     3]: 02221
      0.00738 [    19]: 21121
      0.00581 [     4]: 10222
ROOT  19:  E=   -2312.2383177219 Eh  0.939 eV   7577.5 cm**-1
      0.12210 [     9]: 12112
      0.09547 [    15]: 20212
      0.09238 [    16]: 20221
      0.09062 [     1]: 02122
      0.07618 [    23]: 22012
      0.06664 [    26]: 22111
      0.05227 [    21]: 21211
      0.05206 [     7]: 11221
      0.05043 [     8]: 12022
      0.04793 [    18]: 21112
      0.03984 [     5]: 11122
      0.02821 [    22]: 21220
      0.02590 [     0]: 01222
      0.02451 [    10]: 12121
      0.02075 [    27]: 22120
      0.01915 [    17]: 21022
      0.01817 [    19]: 21121
      0.01770 [    29]: 22210
      0.01330 [    25]: 22102
      0.01009 [    13]: 12220
      0.01008 [    12]: 12211
      0.00864 [     2]: 02212
      0.00451 [     4]: 10222
      0.00444 [    11]: 12202
      0.00267 [     3]: 02221
ROOT  20:  E=   -2312.2362499001 Eh  0.996 eV   8031.3 cm**-1
      0.12146 [    19]: 21121
      0.11439 [     9]: 12112
      0.07562 [    25]: 22102
      0.07372 [    18]: 21112
      0.06052 [     7]: 11221
      0.05879 [    26]: 22111
      0.05620 [    22]: 21220
      0.05406 [    11]: 12202
      0.05076 [    21]: 21211
      0.04425 [     5]: 11122
      0.04415 [    29]: 22210
      0.04151 [     0]: 01222
      0.03828 [     4]: 10222
      0.03378 [     3]: 02221
      0.03253 [    14]: 20122
      0.02877 [    12]: 12211
      0.01616 [     6]: 11212
      0.01385 [    15]: 20212
      0.01252 [    16]: 20221
      0.01123 [    10]: 12121
      0.00627 [    23]: 22012
      0.00509 [    27]: 22120
      0.00353 [    28]: 22201
ROOT  21:  E=   -2312.2324378832 Eh  1.099 eV   8868.0 cm**-1
      0.12624 [    20]: 21202
      0.12232 [    12]: 12211
      0.10104 [    28]: 22201
      0.09144 [     2]: 02212
      0.05092 [    17]: 21022
      0.05034 [    26]: 22111
      0.04765 [    10]: 12121
      0.04756 [     9]: 12112
      0.04483 [     0]: 01222
      0.04071 [    15]: 20212
      0.03848 [    22]: 21220
      0.03760 [    27]: 22120
      0.02339 [    21]: 21211
      0.02260 [    11]: 12202
      0.02024 [    23]: 22012
      0.01890 [     4]: 10222
      0.01883 [    18]: 21112
      0.01878 [    24]: 22021
      0.01611 [     3]: 02221
      0.01422 [     1]: 02122
      0.01313 [     6]: 11212
      0.01291 [     5]: 11122
      0.00665 [    25]: 22102
      0.00560 [     7]: 11221
      0.00501 [    29]: 22210
ROOT  22:  E=   -2312.2318110773 Eh  1.117 eV   9005.5 cm**-1
      0.13819 [    18]: 21112
      0.09304 [     1]: 02122
      0.08745 [    10]: 12121
      0.07416 [    26]: 22111
      0.07169 [     5]: 11122
      0.06377 [     2]: 02212
      0.05912 [    13]: 12220
      0.04612 [    12]: 12211
      0.04145 [     9]: 12112
      0.04113 [     8]: 12022
      0.03598 [    11]: 12202
      0.03085 [    25]: 22102
      0.02753 [     6]: 11212
      0.02745 [    28]: 22201
      0.02085 [    27]: 22120
      0.02016 [    17]: 21022
      0.01930 [    23]: 22012
      0.01353 [    21]: 21211
      0.01332 [    14]: 20122
      0.01305 [     4]: 10222
      0.01085 [    22]: 21220
      0.00714 [    16]: 20221
      0.00692 [    24]: 22021
      0.00618 [    29]: 22210
      0.00598 [     0]: 01222
      0.00571 [    15]: 20212
      0.00537 [     3]: 02221
      0.00523 [    19]: 21121
      0.00482 [    20]: 21202
      0.00368 [     7]: 11221
ROOT  23:  E=   -2312.2289222478 Eh  1.195 eV   9639.6 cm**-1
      0.16637 [    24]: 22021
      0.16340 [     5]: 11122
      0.09950 [    26]: 22111
      0.07984 [     9]: 12112
      0.05734 [    12]: 12211
      0.04888 [     2]: 02212
      0.04809 [    18]: 21112
      0.04321 [    10]: 12121
      0.04108 [    23]: 22012
      0.03079 [    19]: 21121
      0.02830 [     6]: 11212
      0.02535 [    27]: 22120
      0.02502 [    21]: 21211
      0.02494 [    28]: 22201
      0.02219 [     0]: 01222
      0.01892 [     1]: 02122
      0.01805 [    16]: 20221
      0.01797 [     8]: 12022
      0.00761 [    17]: 21022
      0.00705 [     7]: 11221
      0.00642 [    20]: 21202
      0.00574 [    29]: 22210
      0.00387 [    15]: 20212
      0.00367 [    22]: 21220
      0.00251 [    11]: 12202
ROOT  24:  E=   -2312.2288627042 Eh  1.197 eV   9652.6 cm**-1
      0.15009 [     8]: 12022
      0.14378 [    19]: 21121
      0.07592 [     9]: 12112
      0.06730 [    26]: 22111
      0.06556 [    24]: 22021
      0.05179 [    23]: 22012
      0.04972 [     6]: 11212
      0.04311 [    10]: 12121
      0.04287 [    18]: 21112
      0.03944 [     1]: 02122
      0.03877 [    12]: 12211
      0.03874 [    29]: 22210
      0.03705 [    11]: 12202
      0.03217 [     4]: 10222
      0.02602 [    21]: 21211
      0.02362 [     7]: 11221
      0.01304 [     2]: 02212
      0.01194 [    27]: 22120
      0.01142 [    15]: 20212
      0.01023 [     3]: 02221
      0.00676 [    25]: 22102
      0.00614 [    22]: 21220
      0.00507 [    28]: 22201
      0.00282 [    16]: 20221
ROOT  25:  E=   -2312.2272186648 Eh  1.242 eV  10013.4 cm**-1
      0.16067 [     9]: 12112
      0.11129 [    24]: 22021
      0.10300 [    16]: 20221
      0.08974 [     6]: 11212
      0.08854 [    25]: 22102
      0.07593 [    22]: 21220
      0.06905 [    12]: 12211
      0.04476 [     0]: 01222
      0.04000 [    10]: 12121
      0.03689 [     1]: 02122
      0.03341 [    21]: 21211
      0.02626 [    27]: 22120
      0.02266 [     7]: 11221
      0.01572 [    15]: 20212
      0.01510 [     4]: 10222
      0.01343 [     5]: 11122
      0.01124 [    13]: 12220
      0.00836 [    11]: 12202
      0.00763 [    19]: 21121
      0.00658 [    28]: 22201
      0.00506 [     2]: 02212
      0.00427 [    23]: 22012
      0.00299 [     8]: 12022
      0.00265 [    18]: 21112
ROOT  26:  E=   -2312.2262102071 Eh  1.269 eV  10234.8 cm**-1
      0.13636 [     6]: 11212
      0.08920 [    27]: 22120
      0.07895 [    28]: 22201
      0.06713 [    14]: 20122
      0.06346 [    12]: 12211
      0.06137 [    26]: 22111
      0.04657 [    18]: 21112
      0.04498 [    21]: 21211
      0.04255 [     8]: 12022
      0.03822 [    20]: 21202
      0.03345 [     3]: 02221
      0.03279 [    19]: 21121
      0.03182 [    24]: 22021
      0.02920 [     5]: 11122
      0.02841 [    11]: 12202
      0.02584 [     9]: 12112
      0.02533 [     1]: 02122
      0.01811 [     2]: 02212
      0.01776 [     4]: 10222
      0.01757 [     7]: 11221
      0.01694 [     0]: 01222
      0.01658 [    23]: 22012
      0.01508 [    25]: 22102
      0.01333 [    29]: 22210
      0.00704 [    17]: 21022
ROOT  27:  E=   -2312.2253891120 Eh  1.291 eV  10415.0 cm**-1
      0.18163 [    21]: 21211
      0.12947 [    12]: 12211
      0.11131 [     5]: 11122
      0.08738 [    23]: 22012
      0.07569 [     8]: 12022
      0.05232 [    10]: 12121
      0.04437 [    18]: 21112
      0.03859 [     7]: 11221
      0.03137 [     2]: 02212
      0.02958 [    26]: 22111
      0.02550 [    11]: 12202
      0.02362 [     6]: 11212
      0.02286 [    13]: 12220
      0.02182 [    17]: 21022
      0.02141 [     9]: 12112
      0.01778 [    15]: 20212
      0.01592 [    20]: 21202
      0.01552 [    19]: 21121
      0.01308 [    27]: 22120
      0.00958 [     1]: 02122
      0.00851 [    22]: 21220
      0.00628 [    25]: 22102
      0.00584 [     4]: 10222
      0.00530 [    14]: 20122
ROOT  28:  E=   -2312.1648859058 Eh  2.938 eV  23693.9 cm**-1
      0.14895 [    18]: 21112
      0.11039 [     5]: 11122
      0.08965 [    26]: 22111
      0.08038 [     7]: 11221
      0.07322 [    13]: 12220
      0.06237 [    12]: 12211
      0.05372 [    19]: 21121
      0.04443 [    20]: 21202
      0.04287 [    27]: 22120
      0.04069 [    11]: 12202
      0.03439 [     2]: 02212
      0.03229 [     4]: 10222
      0.02829 [    21]: 21211
      0.02546 [    10]: 12121
      0.02085 [     6]: 11212
      0.01969 [    29]: 22210
      0.01619 [     9]: 12112
      0.01576 [     1]: 02122
      0.01381 [    14]: 20122
      0.01279 [    16]: 20221
      0.01058 [    17]: 21022
      0.00948 [    25]: 22102
      0.00405 [    15]: 20212
      0.00381 [     0]: 01222
ROOT  29:  E=   -2312.1638361900 Eh  2.966 eV  23924.3 cm**-1
      0.15320 [    14]: 20122
      0.13269 [     3]: 02221
      0.11778 [    12]: 12211
      0.11533 [    18]: 21112
      0.09586 [    25]: 22102
      0.04562 [    19]: 21121
      0.04339 [    10]: 12121
      0.04092 [    28]: 22201
      0.03894 [    13]: 12220
      0.03721 [     9]: 12112
      0.02933 [    26]: 22111
      0.02767 [    21]: 21211
      0.02220 [    22]: 21220
      0.02168 [     0]: 01222
      0.02153 [    15]: 20212
      0.00886 [    17]: 21022
      0.00812 [     7]: 11221
      0.00714 [    20]: 21202
      0.00667 [    16]: 20221
      0.00596 [    23]: 22012
      0.00379 [    24]: 22021
      0.00343 [    11]: 12202
      0.00309 [    29]: 22210
      0.00253 [     4]: 10222
ROOT  30:  E=   -2312.1603415701 Eh  3.061 eV  24691.3 cm**-1
      0.15187 [     5]: 11122
      0.10755 [    29]: 22210
      0.10394 [    10]: 12121
      0.09834 [     6]: 11212
      0.07793 [    12]: 12211
      0.05125 [     7]: 11221
      0.04972 [    19]: 21121
      0.04409 [    21]: 21211
      0.04290 [    17]: 21022
      0.04187 [    23]: 22012
      0.04032 [     3]: 02221
      0.03381 [    18]: 21112
      0.03299 [    15]: 20212
      0.02876 [    24]: 22021
      0.01507 [    20]: 21202
      0.01493 [    13]: 12220
      0.01209 [    22]: 21220
      0.01206 [     9]: 12112
      0.01127 [    26]: 22111
      0.00629 [     4]: 10222
      0.00524 [    11]: 12202
      0.00472 [    14]: 20122
      0.00375 [    28]: 22201
      0.00306 [     0]: 01222
ROOT  31:  E=   -2312.1595964263 Eh  3.082 eV  24854.8 cm**-1
      0.20172 [    12]: 12211
      0.13065 [     5]: 11122
      0.12378 [    18]: 21112
      0.05986 [    17]: 21022
      0.04086 [     9]: 12112
      0.04042 [    19]: 21121
      0.03852 [     0]: 01222
      0.03772 [    21]: 21211
      0.03662 [    23]: 22012
      0.03479 [    10]: 12121
      0.03335 [    13]: 12220
      0.02999 [    11]: 12202
      0.02999 [    15]: 20212
      0.02624 [    24]: 22021
      0.02273 [    28]: 22201
      0.02114 [     7]: 11221
      0.02072 [    20]: 21202
      0.01795 [    27]: 22120
      0.01506 [     3]: 02221
      0.01343 [     4]: 10222
      0.00790 [    25]: 22102
      0.00711 [     6]: 11212
      0.00334 [    22]: 21220
ROOT  32:  E=   -2312.1586355599 Eh  3.108 eV  25065.7 cm**-1
      0.14315 [    19]: 21121
      0.09685 [     1]: 02122
      0.09199 [    18]: 21112
      0.08239 [     7]: 11221
      0.05726 [    12]: 12211
      0.05652 [     9]: 12112
      0.05284 [    14]: 20122
      0.05165 [    29]: 22210
      0.04248 [    26]: 22111
      0.04166 [    28]: 22201
      0.03589 [     8]: 12022
      0.02931 [     2]: 02212
      0.02746 [    21]: 21211
      0.02648 [     5]: 11122
      0.02399 [     3]: 02221
      0.02380 [    20]: 21202
      0.02125 [    10]: 12121
      0.01782 [    25]: 22102
      0.01669 [     4]: 10222
      0.01378 [     0]: 01222
      0.01275 [    13]: 12220
      0.00749 [    23]: 22012
      0.00593 [     6]: 11212
      0.00569 [    16]: 20221
      0.00442 [    11]: 12202
      0.00439 [    17]: 21022
      0.00342 [    24]: 22021
ROOT  33:  E=   -2312.1562434834 Eh  3.173 eV  25590.7 cm**-1
      0.15414 [    10]: 12121
      0.12834 [    17]: 21022
      0.11738 [     5]: 11122
      0.08300 [    18]: 21112
      0.05818 [     7]: 11221
      0.05563 [    12]: 12211
      0.05360 [    29]: 22210
      0.04866 [    28]: 22201
      0.04478 [    15]: 20212
      0.03490 [    21]: 21211
      0.03357 [    19]: 21121
      0.03299 [    20]: 21202
      0.02227 [     3]: 02221
      0.02012 [     0]: 01222
      0.01810 [    26]: 22111
      0.01664 [     2]: 02212
      0.01210 [    23]: 22012
      0.01137 [    25]: 22102
      0.01096 [    13]: 12220
      0.01034 [     8]: 12022
      0.00869 [     9]: 12112
      0.00726 [     1]: 02122
      0.00569 [    11]: 12202
      0.00398 [     4]: 10222
      0.00272 [    22]: 21220
ROOT  34:  E=   -2312.1562289686 Eh  3.173 eV  25593.9 cm**-1
      0.12055 [    18]: 21112
      0.09129 [     8]: 12022
      0.08602 [    26]: 22111
      0.07760 [    12]: 12211
      0.07295 [    14]: 20122
      0.06457 [     7]: 11221
      0.06309 [    13]: 12220
      0.05074 [    10]: 12121
      0.04225 [    23]: 22012
      0.03913 [    21]: 21211
      0.03455 [     4]: 10222
      0.03246 [     9]: 12112
      0.03035 [    19]: 21121
      0.02779 [     3]: 02221
      0.02686 [    15]: 20212
      0.02427 [    16]: 20221
      0.02376 [    11]: 12202
      0.01943 [     1]: 02122
      0.01808 [    20]: 21202
      0.01565 [    22]: 21220
      0.01369 [     5]: 11122
      0.00865 [    25]: 22102
      0.00383 [    24]: 22021
      0.00369 [    28]: 22201
      0.00258 [    27]: 22120
ROOT  35:  E=   -2312.0605168050 Eh  5.778 eV  46600.3 cm**-1
      0.13596 [    29]: 22210
      0.13280 [     2]: 02212
      0.11101 [    23]: 22012
      0.09555 [    15]: 20212
      0.08916 [    13]: 12220
      0.05158 [     0]: 01222
      0.04340 [    20]: 21202
      0.04192 [    11]: 12202
      0.03929 [     5]: 11122
      0.03478 [    21]: 21211
      0.03213 [     1]: 02122
      0.02678 [     4]: 10222
      0.02492 [    22]: 21220
      0.02176 [    10]: 12121
      0.02022 [    17]: 21022
      0.01468 [    12]: 12211
      0.01462 [    18]: 21112
      0.01380 [     8]: 12022
      0.01078 [     7]: 11221
      0.00905 [    19]: 21121
      0.00897 [    25]: 22102
      0.00665 [     9]: 12112
      0.00557 [    26]: 22111
      0.00543 [     6]: 11212
      0.00390 [    14]: 20122
      0.00336 [    24]: 22021
ROOT  36:  E=   -2312.0573577718 Eh  5.864 eV  47293.6 cm**-1
      0.19668 [    28]: 22201
      0.17879 [     3]: 02221
      0.12250 [    17]: 21022
      0.08780 [    20]: 21202
      0.06444 [    13]: 12220
      0.04762 [     8]: 12022
      0.04637 [    16]: 20221
      0.03968 [    11]: 12202
      0.03903 [    24]: 22021
      0.03556 [    25]: 22102
      0.02989 [     9]: 12112
      0.02023 [    22]: 21220
      0.01424 [     4]: 10222
      0.01356 [     6]: 11212
      0.01295 [     0]: 01222
      0.01006 [    10]: 12121
      0.00860 [    18]: 21112
      0.00853 [     5]: 11122
      0.00849 [    19]: 21121
      0.00457 [    12]: 12211
      0.00327 [    21]: 21211
ROOT  37:  E=   -2312.0560106720 Eh  5.900 eV  47589.3 cm**-1
      0.14267 [    14]: 20122
      0.10715 [    13]: 12220
      0.08991 [     8]: 12022
      0.08473 [    15]: 20212
      0.07770 [     4]: 10222
      0.07162 [     3]: 02221
      0.05679 [    23]: 22012
      0.05135 [    11]: 12202
      0.04927 [    29]: 22210
      0.04572 [    16]: 20221
      0.02982 [     1]: 02122
      0.02895 [    26]: 22111
      0.02561 [     7]: 11221
      0.02406 [    25]: 22102
      0.02269 [     2]: 02212
      0.02084 [     6]: 11212
      0.01681 [    24]: 22021
      0.01135 [    28]: 22201
      0.00806 [     5]: 11122
      0.00637 [    10]: 12121
      0.00623 [    18]: 21112
      0.00570 [     9]: 12112
      0.00434 [    22]: 21220
      0.00375 [    27]: 22120
      0.00327 [    12]: 12211
ROOT  38:  E=   -2312.0410204520 Eh  6.308 eV  50879.2 cm**-1
      0.23335 [    14]: 20122
      0.15277 [    25]: 22102
      0.11543 [    13]: 12220
      0.11206 [    27]: 22120
      0.09501 [     1]: 02122
      0.05381 [    18]: 21112
      0.02695 [     8]: 12022
      0.02582 [    19]: 21121
      0.02469 [    28]: 22201
      0.02397 [    26]: 22111
      0.02000 [     7]: 11221
      0.01977 [     4]: 10222
      0.01901 [    11]: 12202
      0.01267 [    12]: 12211
      0.01000 [     6]: 11212
      0.00953 [     5]: 11122
      0.00879 [    21]: 21211
      0.00791 [    20]: 21202
      0.00614 [    10]: 12121
      0.00558 [     2]: 02212
      0.00456 [    22]: 21220
      0.00258 [    29]: 22210
ROOT  39:  E=   -2312.0403503823 Eh  6.326 eV  51026.3 cm**-1
      0.29473 [    17]: 21022
      0.12551 [     3]: 02221
      0.08206 [    23]: 22012
      0.07980 [     0]: 01222
      0.07597 [    24]: 22021
      0.05881 [    20]: 21202
      0.05273 [    22]: 21220
      0.03311 [    10]: 12121
      0.02817 [    29]: 22210
      0.02764 [    28]: 22201
      0.02258 [     9]: 12112
      0.01954 [    16]: 20221
      0.01516 [    26]: 22111
      0.01347 [    15]: 20212
      0.01178 [    18]: 21112
      0.01085 [    12]: 12211
      0.00929 [     7]: 11221
      0.00816 [     2]: 02212
      0.00694 [     6]: 11212
      0.00559 [     8]: 12022
      0.00546 [     5]: 11122
      0.00384 [    21]: 21211
      0.00333 [    13]: 12220

                 <<<<<<<<<<<<<<<<<<INITIAL CI STATE CHECK>>>>>>>>>>>>>>>>>>

   E(CAS)= -2312.266413826 Eh DE=    0.000000e+00
   --- Energy gap subspaces: Ext-Act = 1.590   Act-Int = 0.111
   --- current l-shift: Up(Ext-Act) = 1.00   Dn(Act-Int) = 1.89
   N(occ)=  1.40000 1.40000 1.40000 1.40000 1.40000
   ||g|| =     7.763869e-05 Max(G)=    2.155340e-05 Rot=598,0
   --- Orbital Update [   SuperCI]
   SUPERCI-ITER   0: DE=    -0.000000000 <r|r>=      0.000000000
   <Psi(SX)|Psi(SX)>=      1.000000000 DE(SX)=-0.000000000
   Largest coefficient in the normalized |SX> wavefunction= 0.000010190
   --- Forming Natural Orbitals

MACRO-ITERATION   2: 
   ===>>> Convergence to 3.0e-02 achieved - switching to Step=DIIS
   --- Inactive Energy E0 = -2287.19514542 Eh
CI-ITERATION   0: 
[...]
 3 106   44103.3    226.7   0.00000   0.00001   0.00000   0.00000000013680   0.99326   0.00663   0.00011
 3 107   44103.3    226.7   0.00000   0.00001   0.00000   0.00000000011290   0.99515   0.00466   0.00020
 3 108   44364.4    225.4   0.00000   0.00002   0.00000   0.00000000094578   0.99814   0.00184   0.00002
 3 109   44364.4    225.4   0.00000   0.00000   0.00000   0.00000000000219   0.83007   0.14271   0.02722
 3 110   65220.6    153.3   0.00000   0.00000   0.00000   0.00000000040995   0.99945   0.00049   0.00006
 3 111   65220.6    153.3   0.00000   0.00001   0.00000   0.00000000070100   0.99931   0.00064   0.00005
 3 112   65895.6    151.8   0.00000   0.00000   0.00000   0.00000000042883   0.99938   0.00056   0.00006
 3 113   65895.6    151.8   0.00000   0.00000   0.00000   0.00000000056550   0.99948   0.00034   0.00018
 3 114   66287.9    150.9   0.00000   0.00000   0.00000   0.00000000102458   0.99956   0.00023   0.00022
 3 115   66287.9    150.9   0.00000   0.00000   0.00000   0.00000000002941   0.99482   0.00062   0.00455
 3 116   69363.8    144.2   0.00000   0.00000   0.00000   0.00000000148928   0.99963   0.00021   0.00016
 3 117   69363.8    144.2   0.00000   0.00000   0.00000   0.00000000054543   0.99945   0.00006   0.00049
 3 118   69823.2    143.2   0.00000   0.00002   0.00000   0.00000000021540   0.99020   0.00962   0.00018
 3 119   69823.2    143.2   0.00000   0.00000   0.00000   0.00000000020544   0.99848   0.00130   0.00021

Done

                 =============================
                 AB INITIO LIGAND FIELD THEORY
                       d7 configuration
                          2 CI blocks
                         MOs 51 to 55
                 =============================

Metal/Atom center is atom 0
orbital phases =   1.0   1.0   1.0   1.0   1.0 
Metal/Atom d-orbital parts of active orbitals
Shell 15
             51        52        53        54        55
dz2     :  0.611449  0.000018 -0.000119 -0.000762  0.000123
dxz     :  0.000210  0.609718 -0.000021  0.000138  0.001063
dyz     :  0.001104  0.000134  0.614453  0.000197 -0.000017
dx2y2   :  0.013095 -0.001696 -0.001950  0.604077 -0.000043
dxy     : -0.001522 -0.006560  0.000154  0.001257  0.609803
Shell 16
             51        52        53        54        55
dz2     :  0.407957 -0.000072 -0.000175  0.001101 -0.000103
dxz     :  0.000059  0.404316  0.000131 -0.000051 -0.000272
dyz     :  0.000706  0.000228  0.411093  0.000202 -0.000092
dx2y2   :  0.010329 -0.001266 -0.001128  0.401146 -0.000049
dxy     : -0.001196 -0.005328  0.000013  0.000815  0.404406
Shell 17
             51        52        53        54        55
dz2     :  0.219993  0.000154  0.000905 -0.002557  0.000165
dxz     :  0.000213  0.222446 -0.000359  0.000015 -0.000529
dyz     :  0.000963 -0.000268  0.219393 -0.000959  0.000285
dx2y2   :  0.002435 -0.000671 -0.002354  0.219955  0.000124
dxy     : -0.000422 -0.003306  0.000396  0.000590  0.222514
Shell 20
             51        52        53        54        55
dz2     :  0.004610  0.000331  0.000868  0.010157 -0.001194
dxz     :  0.000100  0.003000 -0.000070 -0.001555 -0.007621
dyz     :  0.000604  0.000164  0.011002 -0.000985  0.000070
dx2y2   :  0.010093 -0.001464 -0.001494 -0.007461  0.001221
dxy     : -0.001358 -0.007645  0.000335  0.001070  0.003207

Adjusting phases of one-electron integrals               ... done
Adjusting phases of two-electron integrals               ... done


-----------------------------------------------------------------
Computing F0s from 2-electron integrals                  ... done 
-----------------------------------------------------------------
F0   =  0.886834634 a.u. =    24.132 eV =  194637.7 cm**-1
-----------------------------------------------------------------

Preparing for fit                                        ... done
Making fit matrices                                      ... done
Calculating ab initio Hamiltonian matrices               ... 
Calculating fit matrices                                 ... done
Fitting                                                  ... done

------------------------------
AILFT MATRIX ELEMENTS (CASSCF)
--------------------------------

Ligand field one-electron matrix VLFT (a.u.) : 
Orbital          dz2        dxz        dyz        dx2-y2     dxy
  dz2         -6.180612   0.000123  -0.000493  -0.006799   0.000903 
  dxz          0.000123  -6.173882  -0.000236   0.000957   0.006322 
  dyz         -0.000493  -0.000236  -6.184617   0.000853  -0.000019 
  dx2-y2      -0.006799   0.000957   0.000853  -6.172260  -0.000346 
  dxy          0.000903   0.006322  -0.000019  -0.000346  -6.174033 

-------------------------------------------------
Slater-Condon Parameters (electronic repulsion) : 
-------------------------------------------------
F0dd(from 2el Ints)     =  0.886834634 a.u. =    24.132 eV =  194637.7 cm**-1 (fixed)
F2dd                    =  0.401414759 a.u. =    10.923 eV =   88100.4 cm**-1
F4dd                    =  0.252265314 a.u. =     6.864 eV =   55365.8 cm**-1
-------------------
Racah Parameters : 
-------------------
A(F0dd from 2el Ints)   =  0.858805154 a.u. =    23.369 eV =  188485.9 cm**-1
B                       =  0.005331987 a.u. =     0.145 eV =    1170.2 cm**-1
C                       =  0.020021057 a.u. =     0.545 eV =    4394.1 cm**-1
C/B                     =  3.755
-------------------------------------------------------------------------------

-----------------------------------------
The ligand field one electron eigenfunctions:
-----------------------------------------
Orbital    Energy (eV)  Energy(cm-1)      dz2        dxz        dyz        dx2-y2     dxy
    1          0.000        0.0        -0.055919  -0.041907  -0.996251   0.041820   0.029199 
    2          0.006       51.0         0.870602  -0.030659  -0.028261   0.488529  -0.040645 
    3          0.118      949.7        -0.033883  -0.699228   0.055352   0.078575   0.707597 
    4          0.446     3596.5        -0.486624   0.044291   0.059476   0.866735  -0.080433 
    5          0.465     3752.9        -0.031208  -0.711633   0.009200  -0.046769  -0.700237 
Ligand field orbitals were stored in rho.casscf.lft.gbw

Calculating ligand field Hamiltonian matrices          ... done
Diagonalizing and fitting the ligand field Hamiltonian ... done
Calculating statistical parameters                     ... done

Reference energy AI-LFT =    -25.162432780 au
Reference energy AI     =    -25.161274055 au

------------------------------------------------
COMPARISON OF AB INITIO AND LIGAND FIELD RESULTS
------------------------------------------------

Block   1
---------
   AI-Root   0: E(AI)=    0.000 eV -> LF-Root   0:     0.000 eV    S= 0.999 Delta=    0.000 eV
   AI-Root   1: E(AI)=    0.033 eV -> LF-Root   1:     0.039 eV    S= 0.999 Delta=   -0.006 eV
   AI-Root   2: E(AI)=    0.219 eV -> LF-Root   2:     0.271 eV    S= 0.986 Delta=   -0.053 eV
   AI-Root   3: E(AI)=    0.224 eV -> LF-Root   3:     0.286 eV    S= 0.711 Delta=   -0.062 eV
   AI-Root   4: E(AI)=    0.256 eV -> LF-Root   4:     0.254 eV    S= 0.716 Delta=    0.002 eV
   AI-Root   5: E(AI)=    0.280 eV -> LF-Root   5:     0.319 eV    S= 0.999 Delta=   -0.038 eV
   AI-Root   6: E(AI)=    0.376 eV -> LF-Root   6:     0.425 eV    S= 0.999 Delta=   -0.048 eV
   AI-Root   7: E(AI)=    2.189 eV -> LF-Root   7:     2.153 eV    S= 1.000 Delta=    0.036 eV
   AI-Root   8: E(AI)=    2.432 eV -> LF-Root   8:     2.486 eV    S= 1.000 Delta=   -0.054 eV
   AI-Root   9: E(AI)=    2.605 eV -> LF-Root   9:     2.689 eV    S= 1.000 Delta=   -0.084 eV
   (Dropping RMS error for the reference energy)
   RMS error for this block =     0.049 eV =     395.7 cm**-1 

Block   2
---------
   AI-Root   0: E(AI)=    2.274 eV -> LF-Root   0:     2.325 eV    S= 0.871 Delta=   -0.050 eV
   AI-Root   1: E(AI)=    2.278 eV -> LF-Root   1:     2.291 eV    S= 0.981 Delta=   -0.013 eV
   AI-Root   2: E(AI)=    2.284 eV -> LF-Root   2:     2.323 eV    S= 0.871 Delta=   -0.039 eV
   AI-Root   3: E(AI)=    2.309 eV -> LF-Root   3:     2.365 eV    S= 0.999 Delta=   -0.057 eV
   AI-Root   4: E(AI)=    2.324 eV -> LF-Root   4:     2.378 eV    S= 0.981 Delta=   -0.053 eV
   AI-Root   5: E(AI)=    2.392 eV -> LF-Root   5:     2.427 eV    S= 0.997 Delta=   -0.035 eV
   AI-Root   6: E(AI)=    2.406 eV -> LF-Root   6:     2.439 eV    S= 0.996 Delta=   -0.033 eV
   AI-Root   7: E(AI)=    2.497 eV -> LF-Root   7:     2.519 eV    S= 0.997 Delta=   -0.022 eV
   AI-Root   8: E(AI)=    2.508 eV -> LF-Root   8:     2.530 eV    S= 0.997 Delta=   -0.023 eV
   AI-Root   9: E(AI)=    2.895 eV -> LF-Root   9:     2.917 eV    S= 0.995 Delta=   -0.022 eV
   AI-Root  10: E(AI)=    2.899 eV -> LF-Root  10:     2.938 eV    S= 0.988 Delta=   -0.040 eV
   AI-Root  11: E(AI)=    2.899 eV -> LF-Root  11:     2.939 eV    S= 0.991 Delta=   -0.040 eV
   AI-Root  12: E(AI)=    3.003 eV -> LF-Root  12:     3.027 eV    S= 0.992 Delta=   -0.024 eV
   AI-Root  13: E(AI)=    3.012 eV -> LF-Root  13:     3.060 eV    S= 0.837 Delta=   -0.048 eV
   AI-Root  14: E(AI)=    3.051 eV -> LF-Root  14:     3.067 eV    S= 0.838 Delta=   -0.017 eV
   AI-Root  15: E(AI)=    3.066 eV -> LF-Root  15:     3.089 eV    S= 0.986 Delta=   -0.022 eV
   AI-Root  16: E(AI)=    3.187 eV -> LF-Root  16:     3.232 eV    S= 0.982 Delta=   -0.046 eV
   AI-Root  17: E(AI)=    3.197 eV -> LF-Root  17:     3.205 eV    S= 0.999 Delta=   -0.009 eV
   AI-Root  18: E(AI)=    3.214 eV -> LF-Root  18:     3.228 eV    S= 0.990 Delta=   -0.015 eV
   AI-Root  19: E(AI)=    3.214 eV -> LF-Root  19:     3.253 eV    S= 0.978 Delta=   -0.040 eV
   AI-Root  20: E(AI)=    3.270 eV -> LF-Root  20:     3.284 eV    S= 0.983 Delta=   -0.014 eV
   AI-Root  21: E(AI)=    3.374 eV -> LF-Root  21:     3.402 eV    S= 0.992 Delta=   -0.028 eV
   AI-Root  22: E(AI)=    3.391 eV -> LF-Root  22:     3.416 eV    S= 0.994 Delta=   -0.025 eV
   AI-Root  23: E(AI)=    3.469 eV -> LF-Root  23:     3.518 eV    S= 0.916 Delta=   -0.049 eV
   AI-Root  24: E(AI)=    3.471 eV -> LF-Root  24:     3.525 eV    S= 1.000 Delta=   -0.054 eV
   AI-Root  25: E(AI)=    3.516 eV -> LF-Root  25:     3.539 eV    S= 0.912 Delta=   -0.023 eV
   AI-Root  26: E(AI)=    3.543 eV -> LF-Root  26:     3.603 eV    S= 0.999 Delta=   -0.060 eV
   AI-Root  27: E(AI)=    3.566 eV -> LF-Root  27:     3.562 eV    S= 0.997 Delta=    0.004 eV
   AI-Root  28: E(AI)=    5.212 eV -> LF-Root  28:     5.268 eV    S= 1.000 Delta=   -0.056 eV
   AI-Root  29: E(AI)=    5.240 eV -> LF-Root  29:     5.271 eV    S= 1.000 Delta=   -0.031 eV
   AI-Root  30: E(AI)=    5.336 eV -> LF-Root  30:     5.372 eV    S= 1.000 Delta=   -0.036 eV
   AI-Root  31: E(AI)=    5.356 eV -> LF-Root  31:     5.385 eV    S= 0.999 Delta=   -0.030 eV
   AI-Root  32: E(AI)=    5.382 eV -> LF-Root  32:     5.419 eV    S= 1.000 Delta=   -0.037 eV
   AI-Root  33: E(AI)=    5.447 eV -> LF-Root  33:     5.487 eV    S= 0.998 Delta=   -0.040 eV
   AI-Root  34: E(AI)=    5.447 eV -> LF-Root  34:     5.487 eV    S= 0.999 Delta=   -0.039 eV
   AI-Root  35: E(AI)=    8.052 eV -> LF-Root  35:     8.056 eV    S= 0.999 Delta=   -0.005 eV
   AI-Root  36: E(AI)=    8.138 eV -> LF-Root  36:     8.146 eV    S= 0.999 Delta=   -0.008 eV
   AI-Root  37: E(AI)=    8.175 eV -> LF-Root  37:     8.250 eV    S= 0.999 Delta=   -0.076 eV
   AI-Root  38: E(AI)=    8.582 eV -> LF-Root  38:     8.594 eV    S= 0.997 Delta=   -0.012 eV
   AI-Root  39: E(AI)=    8.601 eV -> LF-Root  39:     8.604 eV    S= 0.997 Delta=   -0.003 eV
   RMS error for this block =     0.036 eV =     292.8 cm**-1 

Total RMS error g=     0.039 eV =     314.2 cm**-1
Note: Dropped RMS error for the reference energy.

Confidence intervals (95%) computed from the square root of the
diagonal elements of the covariance matrix:
H(dz2   ,dz2   )=  0.000176057 a.u. =     0.005 eV =      38.6 cm**-1
H(dxz   ,dz2   )=  0.000148947 a.u. =     0.004 eV =      32.7 cm**-1
H(dxz   ,dxz   )=  0.000176057 a.u. =     0.005 eV =      38.6 cm**-1
H(dyz   ,dz2   )=  0.000148947 a.u. =     0.004 eV =      32.7 cm**-1
H(dyz   ,dxz   )=  0.000148947 a.u. =     0.004 eV =      32.7 cm**-1
H(dyz   ,dyz   )=  0.000176057 a.u. =     0.005 eV =      38.6 cm**-1
H(dx2-y2,dz2   )=  0.000148947 a.u. =     0.004 eV =      32.7 cm**-1
H(dx2-y2,dxz   )=  0.000148947 a.u. =     0.004 eV =      32.7 cm**-1
H(dx2-y2,dyz   )=  0.000148947 a.u. =     0.004 eV =      32.7 cm**-1
H(dx2-y2,dx2-y2)=  0.000176057 a.u. =     0.005 eV =      38.6 cm**-1
H(dxy   ,dz2   )=  0.000148947 a.u. =     0.004 eV =      32.7 cm**-1
H(dxy   ,dxz   )=  0.000148947 a.u. =     0.004 eV =      32.7 cm**-1
H(dxy   ,dyz   )=  0.000148947 a.u. =     0.004 eV =      32.7 cm**-1
H(dxy   ,dx2-y2)=  0.000148947 a.u. =     0.004 eV =      32.7 cm**-1
H(dxy   ,dxy   )=  0.000176057 a.u. =     0.005 eV =      38.6 cm**-1
F2dd            =  0.000632254 a.u. =     0.017 eV =     138.8 cm**-1
F4dd            =  0.000916993 a.u. =     0.025 eV =     201.3 cm**-1
Pearson's correlation coefficient =    1.000 (should be close to 1)

----------------------------------------------
SPIN ORBIT COUPLING (based on CASSCF orbitals)
----------------------------------------------

AI-SOC-X integrals (cm-1)
                  0          1          2          3          4    
      0      -0.000000   1.553030 898.801203  -0.366117   0.153147
      1      -1.553030   0.000000  -1.200772   1.013978 506.188599
      2     -898.801203   1.200772   0.000000 -505.309685  -0.210993
      3       0.366117  -1.013978 505.309685  -0.000000  -0.034465
      4      -0.153147 -506.188599   0.210993   0.034465  -0.000000
AI-SOC-Y integrals (cm-1)
                  0          1          2          3          4    
      0      -0.000000 -869.420707  -1.204230  -0.217076  -2.310695
      1     869.420707   0.000000  -2.711075 -500.138608  -0.327969
      2       1.204230   2.711075  -0.000000  -1.205102 -512.595942
      3       0.217076 500.138608   1.205102   0.000000  -1.485366
      4       2.310695   0.327969 512.595942   1.485366  -0.000000
AI-SOC-Z integrals (cm-1)
                  0          1          2          3          4    
      0      -0.000000  -0.602858  -0.248753  -2.772298 -24.318011
      1       0.602858   0.000000 -512.529302 -12.195612   3.216285
      2       0.248753 512.529302  -0.000000   0.428851   5.473813
      3       2.772298  12.195612  -0.428851   0.000000 -1002.811758
      4      24.318011  -3.216285  -5.473813 1002.811758  -0.000000

Fit to the SOC matrix elements
a = 15.000000
b =     0.943 eV =    7605.0 cm**-1
SOC constant zeta =     0.063 eV =     507.0 cm**-1


LF-SOC-X integrals (cm-1)
                  0          1          2          3          4    
      0       0.000000  -0.000000 878.153898  -0.000000  -0.000000
      1       0.000000   0.000000  -0.000000  -0.000000 507.002389
      2     -878.153898   0.000000   0.000000 -507.002389  -0.000000
      3       0.000000   0.000000 507.002389   0.000000  -0.000000
      4       0.000000 -507.002389   0.000000   0.000000   0.000000
LF-SOC-Y integrals (cm-1)
                  0          1          2          3          4    
      0       0.000000 -878.153898  -0.000000  -0.000000  -0.000000
      1     878.153898   0.000000  -0.000000 -507.002389  -0.000000
      2       0.000000   0.000000   0.000000  -0.000000 -507.002389
      3       0.000000 507.002389   0.000000   0.000000  -0.000000
      4       0.000000   0.000000 507.002389   0.000000   0.000000
LF-SOC-Z integrals (cm-1)
                  0          1          2          3          4    
      0       0.000000  -0.000000  -0.000000  -0.000000  -0.000000
      1       0.000000   0.000000 -507.002389  -0.000000  -0.000000
      2       0.000000 507.002389   0.000000  -0.000000  -0.000000
      3       0.000000   0.000000   0.000000   0.000000 -1014.004778
      4       0.000000   0.000000   0.000000 1014.004778   0.000000

RMS error of nonzero matrix elements =    7.3 cm**-1


-----SOC-CONSTANTS-----
---All Values in cm-1---
ZETA_D = 507.00 
------------------------




---AILFT COMPLETED SUCCESFULLY!---

--------------
CASSCF TIMINGS
--------------

Total time                       ...      144.2 sec
Sum of individual times          ...      152.4 sec (105.7%)

Calculation of AO operators
   F(Core) operator              ...       28.0 sec ( 19.4%)
   G(Act) operator               ...       25.1 sec ( 17.4%)
   J(AO) operators               ...        0.0 sec (  0.0%)
Calculation of MO transformed quantities
   J(MO) operators               ...        4.8 sec (  3.4%)
   (pq|rs) integrals             ...        0.0 sec (  0.0%)
   AO->MO one electron integrals ...        0.1 sec (  0.1%)
Configuration interaction steps
   CI-setup phase                ...        0.0 sec (  0.0%)
   CI-solution phase             ...        0.1 sec (  0.1%)
   Generation of densities       ...        0.0 sec (  0.0%)
Orbital improvement steps
   Orbital gradient              ...        0.0 sec (  0.0%)
   O(1) converger                ...        0.3 sec (  0.2%)
Properties                       ...       57.3 sec ( 39.7%)
   SOC integral calculation      ...       36.4 sec ( 25.3%)
   SSC RMEs (incl. integrals)    ...        0.0 sec (  0.0%)
   SOC RMEs                      ...        0.2 sec (  0.1%)

Maximum memory used throughout the entire CASSCF-calculation: 669.2 MB

-------------------------   --------------------
FINAL SINGLE POINT ENERGY     -2312.266413829417
-------------------------   --------------------


                            ***************************************
                            *     ORCA property calculations      *
                            ***************************************

                                    ---------------------
                                    Active property flags
                                    ---------------------
   (+) Dipole Moment


------------------------------------------------------------------------------
                       ORCA ELECTRIC PROPERTIES CALCULATION
------------------------------------------------------------------------------

Dipole Moment Calculation                       ... on
Quadrupole Moment Calculation                   ... off
Polarizability Calculation                      ... off
GBWName                                         ... rho.gbw
Electron density                                ... rho.scfp
The origin for moment calculation is the CENTER OF MASS  = (-0.005268, -0.442493 -0.454952)

-------------
DIPOLE MOMENT
-------------
                                X             Y             Z
Electronic contribution:     -0.08404      -7.07001      -7.26862
Nuclear contribution   :      0.08229       6.90993       7.10392
                        -----------------------------------------
Total Dipole Moment    :     -0.00175      -0.16008      -0.16470
                        -----------------------------------------
Magnitude (a.u.)       :      0.22968
Magnitude (Debye)      :      0.58381



--------------------
Rotational spectrum 
--------------------
 
Rotational constants in cm-1:     0.052463     0.014457     0.014149 
Rotational constants in MHz :  1572.813791   433.417201   424.170674 

 Dipole components along the rotational axes: 
x,y,z [a.u.] :     0.000180    -0.229683    -0.000299 
x,y,z [Debye]:     0.000458    -0.583807    -0.000759 

 

Timings for individual modules:

Sum of individual times         ...      159.322 sec (=   2.655 min)
GTO integral calculation        ...        4.346 sec (=   0.072 min)   2.7 %
Relativistic integrals          ...        2.122 sec (=   0.035 min)   1.3 %
SCF iterations                  ...        3.312 sec (=   0.055 min)   2.1 %
CASSCF iterations               ...      149.541 sec (=   2.492 min)  93.9 %
                             ****ORCA TERMINATED NORMALLY****
TOTAL RUN TIME: 0 days 0 hours 2 minutes 44 seconds 165 msec
