
                                 *****************
                                 * O   R   C   A *
                                 *****************

                                            #,                                       
                                            ###                                      
                                            ####                                     
                                            #####                                    
                                            ######                                   
                                           ########,                                 
                                     ,,################,,,,,                         
                               ,,#################################,,                 
                          ,,##########################################,,             
                       ,#########################################, ''#####,          
                    ,#############################################,,   '####,        
                  ,##################################################,,,,####,       
                ,###########''''           ''''###############################       
              ,#####''   ,,,,##########,,,,          '''####'''          '####       
            ,##' ,,,,###########################,,,                        '##       
           ' ,,###''''                  '''############,,,                           
         ,,##''                                '''############,,,,        ,,,,,,###''
      ,#''                                            '''#######################'''  
     '                                                          ''''####''''         
             ,#######,   #######,   ,#######,      ##                                
            ,#'     '#,  ##    ##  ,#'     '#,    #''#        ######   ,####,        
            ##       ##  ##   ,#'  ##            #'  '#       #        #'  '#        
            ##       ##  #######   ##           ,######,      #####,   #    #        
            '#,     ,#'  ##    ##  '#,     ,#' ,#      #,         ##   #,  ,#        
             '#######'   ##     ##  '#######'  #'      '#     #####' # '####'        



                  #######################################################
                  #                        -***-                        #
                  #          Department of theory and spectroscopy      #
                  #    Directorship and core code : Frank Neese         #
                  #        Max Planck Institute fuer Kohlenforschung    #
                  #                Kaiser Wilhelm Platz 1               #
                  #                 D-45470 Muelheim/Ruhr               #
                  #                      Germany                        #
                  #                                                     #
                  #                  All rights reserved                #
                  #                        -***-                        #
                  #######################################################


                         Program Version 5.0.4 -  RELEASE  -


 With contributions from (in alphabetic order):
   Daniel Aravena         : Magnetic Suceptibility
   Michael Atanasov       : Ab Initio Ligand Field Theory (pilot matlab implementation)
   Alexander A. Auer      : GIAO ZORA, VPT2 properties, NMR spectrum
   Ute Becker             : Parallelization
   Giovanni Bistoni       : ED, misc. LED, open-shell LED, HFLD
   Martin Brehm           : Molecular dynamics
   Dmytro Bykov           : SCF Hessian
   Vijay G. Chilkuri      : MRCI spin determinant printing, contributions to CSF-ICE
   Dipayan Datta          : RHF DLPNO-CCSD density
   Achintya Kumar Dutta   : EOM-CC, STEOM-CC
   Dmitry Ganyushin       : Spin-Orbit,Spin-Spin,Magnetic field MRCI
   Miquel Garcia          : C-PCM and meta-GGA Hessian, CC/C-PCM, Gaussian charge scheme
   Yang Guo               : DLPNO-NEVPT2, F12-NEVPT2, CIM, IAO-localization
   Andreas Hansen         : Spin unrestricted coupled pair/coupled cluster methods
   Benjamin Helmich-Paris : MC-RPA, TRAH-SCF, COSX integrals
   Lee Huntington         : MR-EOM, pCC
   Robert Izsak           : Overlap fitted RIJCOSX, COSX-SCS-MP3, EOM
   Marcus Kettner         : VPT2
   Christian Kollmar      : KDIIS, OOCD, Brueckner-CCSD(T), CCSD density, CASPT2, CASPT2-K
   Simone Kossmann        : Meta GGA functionals, TD-DFT gradient, OOMP2, MP2 Hessian
   Martin Krupicka        : Initial AUTO-CI
   Lucas Lang             : DCDCAS
   Marvin Lechner         : AUTO-CI (C++ implementation), FIC-MRCC
   Dagmar Lenk            : GEPOL surface, SMD
   Dimitrios Liakos       : Extrapolation schemes; Compound Job, initial MDCI parallelization
   Dimitrios Manganas     : Further ROCIS development; embedding schemes
   Dimitrios Pantazis     : SARC Basis sets
   Anastasios Papadopoulos: AUTO-CI, single reference methods and gradients
   Taras Petrenko         : DFT Hessian,TD-DFT gradient, ASA, ECA, R-Raman, ABS, FL, XAS/XES, NRVS
   Peter Pinski           : DLPNO-MP2, DLPNO-MP2 Gradient
   Christoph Reimann      : Effective Core Potentials
   Marius Retegan         : Local ZFS, SOC
   Christoph Riplinger    : Optimizer, TS searches, QM/MM, DLPNO-CCSD(T), (RO)-DLPNO pert. Triples
   Tobias Risthaus        : Range-separated hybrids, TD-DFT gradient, RPA, STAB
   Michael Roemelt        : Original ROCIS implementation
   Masaaki Saitow         : Open-shell DLPNO-CCSD energy and density
   Barbara Sandhoefer     : DKH picture change effects
   Avijit Sen             : IP-ROCIS
   Kantharuban Sivalingam : CASSCF convergence, NEVPT2, FIC-MRCI
   Bernardo de Souza      : ESD, SOC TD-DFT
   Georgi Stoychev        : AutoAux, RI-MP2 NMR, DLPNO-MP2 response
   Willem Van den Heuvel  : Paramagnetic NMR
   Boris Wezisla          : Elementary symmetry handling
   Frank Wennmohs         : Technical directorship


 We gratefully acknowledge several colleagues who have allowed us to
 interface, adapt or use parts of their codes:
   Stefan Grimme, W. Hujo, H. Kruse, P. Pracht,  : VdW corrections, initial TS optimization,
                  C. Bannwarth, S. Ehlert          DFT functionals, gCP, sTDA/sTD-DF
   Ed Valeev, F. Pavosevic, A. Kumar             : LibInt (2-el integral package), F12 methods
   Garnet Chan, S. Sharma, J. Yang, R. Olivares  : DMRG
   Ulf Ekstrom                                   : XCFun DFT Library
   Mihaly Kallay                                 : mrcc  (arbitrary order and MRCC methods)
   Jiri Pittner, Ondrej Demel                    : Mk-CCSD
   Frank Weinhold                                : gennbo (NPA and NBO analysis)
   Christopher J. Cramer and Donald G. Truhlar   : smd solvation model
   Lars Goerigk                                  : TD-DFT with DH, B97 family of functionals
   V. Asgeirsson, H. Jonsson                     : NEB implementation
   FAccTs GmbH                                   : IRC, NEB, NEB-TS, DLPNO-Multilevel, CI-OPT
                                                   MM, QMMM, 2- and 3-layer-ONIOM, Crystal-QMMM,
                                                   LR-CPCM, SF, NACMEs, symmetry and pop. for TD-DFT,
                                                   nearIR, NL-DFT gradient (VV10), updates on ESD,
                                                   ML-optimized integration grids
   S Lehtola, MJT Oliveira, MAL Marques          : LibXC Library
   Liviu Ungur et al                             : ANISO software


 Your calculation uses the libint2 library for the computation of 2-el integrals
 For citations please refer to: http://libint.valeyev.net

 Your ORCA version has been built with support for libXC version: 5.1.0
 For citations please refer to: https://tddft.org/programs/libxc/

 This ORCA versions uses:
   CBLAS   interface :  Fast vector & matrix operations
   LAPACKE interface :  Fast linear algebra routines
   SCALAPACK package :  Parallel linear algebra routines
   Shared memory     :  Shared parallel matrices
   BLAS/LAPACK       :  OpenBLAS 0.3.15  USE64BITINT DYNAMIC_ARCH NO_AFFINITY Zen SINGLE_THREADED
        Core in use  :  Zen
   Copyright (c) 2011-2014, The OpenBLAS Project




***************************************
The coordinates will be read from file: geo.xyz
***************************************


================================================================================

----- Orbital basis set information -----
Your calculation utilizes the basis: DKH-def2-TZVPP
   Exponents from def2-TZVPP [F. Weigend and R. Ahlrichs, Phys. Chem. Chem. Phys. 7, 3297 (2005)],
   recontracted for DKH2 by D. A. Pantazis.

----- AuxJ basis set information -----
Your calculation utilizes the AutoAux generation procedure.
  G. L. Stoychev, A. A. Auer, F. Neese, J. Chem. Theory Comput. 13, 554 (2017)

----- AuxC basis set information -----
Your calculation utilizes the AutoAux generation procedure.
  G. L. Stoychev, A. A. Auer, F. Neese, J. Chem. Theory Comput. 13, 554 (2017)

----- AuxJK basis set information -----
Your calculation utilizes the AutoAux generation procedure.
  G. L. Stoychev, A. A. Auer, F. Neese, J. Chem. Theory Comput. 13, 554 (2017)

================================================================================
                                        WARNINGS
                       Please study these warnings very carefully!
================================================================================


INFO   : the flag for use of the SHARK integral package has been found!

================================================================================
                                       INPUT FILE
================================================================================
NAME = rho.inp
|  1> !CASSCF  DKH DKH-def2-TZVPP  RIJCOSX NoSFitting VeryTightSCF autoaux patom SlowConv
|  2> #%moinp "orb.gbw"
|  3> %pal
|  4> nprocs 40
|  5> end
|  6> %maxcore 4000
|  7> # swap
|  8> #
|  9> %rel
| 10>  picturechange 2
| 11> end
| 12> %casscf
| 13>  nel  7
| 14>  norb 5
| 15>  mult 4,2
| 16>  nroots 10,40
| 17>  maxiter 100
| 18>  ActOrbs dOrbs
| 19>  rel
| 20>   printlevel 3
| 21>   dosoc true
| 22>   gtensor true
| 23>   quad true
| 24>  end
| 25> end
| 26> * xyzfile 0 4 geo.xyz *
| 27> 
| 28>                          ****END OF INPUT****
================================================================================

                       ****************************
                       * Single Point Calculation *
                       ****************************

---------------------------------
CARTESIAN COORDINATES (ANGSTROEM)
---------------------------------
  Co    -0.255411    0.297195    0.218510
  O     -0.136859   -0.986040    1.369099
  C      0.397352   -1.590000    2.508256
  H      1.462759   -1.839318    2.360133
  H     -0.146471   -2.524011    2.730679
  H      0.315739   -0.925531    3.386164
  O     -0.368512    1.574492   -0.939839
  C     -0.892360    2.154183   -2.096581
  H     -0.272937    3.015022   -2.401420
  H     -1.921074    2.516140   -1.923266
  H     -0.914929    1.431684   -2.930934

----------------------------
CARTESIAN COORDINATES (A.U.)
----------------------------
  NO LB      ZA    FRAG     MASS         X           Y           Z
   0 Co   27.0000    0    58.930   -0.482656    0.561617    0.412924
   1 O     8.0000    0    15.999   -0.258627   -1.863345    2.587222
   2 C     6.0000    0    12.011    0.750887   -3.004665    4.739917
   3 H     1.0000    0     1.008    2.764215   -3.475808    4.460005
   4 H     1.0000    0     1.008   -0.276790   -4.769690    5.160235
   5 H     1.0000    0     1.008    0.596661   -1.749000    6.398923
   6 O     8.0000    0    15.999   -0.696386    2.975359   -1.776039
   7 C     6.0000    0    12.011   -1.686317    4.070815   -3.961964
   8 H     1.0000    0     1.008   -0.515776    5.697566   -4.538026
   9 H     1.0000    0     1.008   -3.630305    4.754816   -3.634445
  10 H     1.0000    0     1.008   -1.728965    2.705490   -5.538663

--------------------------------
INTERNAL COORDINATES (ANGSTROEM)
--------------------------------
 Co     0   0   0     0.000000000000     0.00000000     0.00000000
 O      1   0   0     1.727599872827     0.00000000     0.00000000
 C      2   1   0     1.395646222029   153.03843746     0.00000000
 H      3   2   1     1.104170314955   110.94983035   294.27876399
 H      3   2   1     1.103445633284   110.00973232   174.65192643
 H      3   2   1     1.104039695315   111.11846587    54.82204532
 O      1   2   3     1.728019837927   179.62925410   105.28049975
 C      7   1   2     1.395890563046   152.50069227    72.93520884
 H      8   7   1     1.103474833388   110.01315036   193.70084861
 H      8   7   1     1.104221045694   110.83501803    74.20908416
 H      8   7   1     1.103929245790   111.23499266   313.64800731

---------------------------
INTERNAL COORDINATES (A.U.)
---------------------------
 Co     0   0   0     0.000000000000     0.00000000     0.00000000
 O      1   0   0     3.264690628640     0.00000000     0.00000000
 C      2   1   0     2.637389139476   153.03843746     0.00000000
 H      3   2   1     2.086579500471   110.94983035   294.27876399
 H      3   2   1     2.085210050579   110.00973232   174.65192643
 H      3   2   1     2.086332665124   111.11846587    54.82204532
 O      1   2   3     3.265484247666   179.62925410   105.28049975
 C      7   1   2     2.637850877083   152.50069227    72.93520884
 H      8   7   1     2.085265230778   110.01315036   193.70084861
 H      8   7   1     2.086675367673   110.83501803    74.20908416
 H      8   7   1     2.086123945769   111.23499266   313.64800731

---------------------
BASIS SET INFORMATION
---------------------
There are 4 groups of distinct atoms

 Group   1 Type Co  : 17s12p7d2f1g contracted to 10s7p4d2f1g pattern {8111111111/6111111/4111/11/1}
 Group   2 Type O   : 11s6p2d1f contracted to 6s3p2d1f pattern {611111/411/11/1}
 Group   3 Type C   : 11s6p2d1f contracted to 6s3p2d1f pattern {611111/411/11/1}
 Group   4 Type H   : 5s2p1d contracted to 3s2p1d pattern {311/11/1}

Atom   0Co   basis set group =>   1
Atom   1O    basis set group =>   2
Atom   2C    basis set group =>   3
Atom   3H    basis set group =>   4
Atom   4H    basis set group =>   4
Atom   5H    basis set group =>   4
Atom   6O    basis set group =>   2
Atom   7C    basis set group =>   3
Atom   8H    basis set group =>   4
Atom   9H    basis set group =>   4
Atom  10H    basis set group =>   4
---------------------------------
AUXILIARY/J BASIS SET INFORMATION
---------------------------------
There are 4 groups of distinct atoms

 Group   1 Type Co  : 22s18p17d17f16g6h3i contracted to 22s18p17d17f16g6h3i pattern {1111111111111111111111/111111111111111111/11111111111111111/11111111111111111/1111111111111111/111111/111}
 Group   2 Type O   : 16s13p12d7f3g contracted to 16s13p12d7f3g pattern {1111111111111111/1111111111111/111111111111/1111111/111}
 Group   3 Type C   : 16s13p12d7f3g contracted to 16s13p12d7f3g pattern {1111111111111111/1111111111111/111111111111/1111111/111}
 Group   4 Type H   : 11s4p3d2f contracted to 11s4p3d2f pattern {11111111111/1111/111/11}

Atom   0Co   basis set group =>   1
Atom   1O    basis set group =>   2
Atom   2C    basis set group =>   3
Atom   3H    basis set group =>   4
Atom   4H    basis set group =>   4
Atom   5H    basis set group =>   4
Atom   6O    basis set group =>   2
Atom   7C    basis set group =>   3
Atom   8H    basis set group =>   4
Atom   9H    basis set group =>   4
Atom  10H    basis set group =>   4
---------------------------------
AUXILIARY/C BASIS SET INFORMATION
---------------------------------
There are 4 groups of distinct atoms

 Group   1 Type Co  : 22s18p17d17f16g6h3i contracted to 22s18p17d17f16g6h3i pattern {1111111111111111111111/111111111111111111/11111111111111111/11111111111111111/1111111111111111/111111/111}
 Group   2 Type O   : 16s13p12d7f3g contracted to 16s13p12d7f3g pattern {1111111111111111/1111111111111/111111111111/1111111/111}
 Group   3 Type C   : 16s13p12d7f3g contracted to 16s13p12d7f3g pattern {1111111111111111/1111111111111/111111111111/1111111/111}
 Group   4 Type H   : 11s4p3d2f contracted to 11s4p3d2f pattern {11111111111/1111/111/11}

Atom   0Co   basis set group =>   1
Atom   1O    basis set group =>   2
Atom   2C    basis set group =>   3
Atom   3H    basis set group =>   4
Atom   4H    basis set group =>   4
Atom   5H    basis set group =>   4
Atom   6O    basis set group =>   2
Atom   7C    basis set group =>   3
Atom   8H    basis set group =>   4
Atom   9H    basis set group =>   4
Atom  10H    basis set group =>   4
----------------------------------
AUXILIARY/JK BASIS SET INFORMATION
----------------------------------
There are 4 groups of distinct atoms

 Group   1 Type Co  : 22s18p17d17f16g6h3i contracted to 22s18p17d17f16g6h3i pattern {1111111111111111111111/111111111111111111/11111111111111111/11111111111111111/1111111111111111/111111/111}
 Group   2 Type O   : 16s13p12d7f3g contracted to 16s13p12d7f3g pattern {1111111111111111/1111111111111/111111111111/1111111/111}
 Group   3 Type C   : 16s13p12d7f3g contracted to 16s13p12d7f3g pattern {1111111111111111/1111111111111/111111111111/1111111/111}
 Group   4 Type H   : 11s4p3d2f contracted to 11s4p3d2f pattern {11111111111/1111/111/11}

Atom   0Co   basis set group =>   1
Atom   1O    basis set group =>   2
Atom   2C    basis set group =>   3
Atom   3H    basis set group =>   4
Atom   4H    basis set group =>   4
Atom   5H    basis set group =>   4
Atom   6O    basis set group =>   2
Atom   7C    basis set group =>   3
Atom   8H    basis set group =>   4
Atom   9H    basis set group =>   4
Atom  10H    basis set group =>   4


           ************************************************************
           *        Program running with 40 parallel MPI-processes    *
           *              working on a common directory               *
           ************************************************************
------------------------------------------------------------------------------
                           ORCA GTO INTEGRAL CALCULATION
                           -- RI-GTO INTEGRALS CHOSEN --
------------------------------------------------------------------------------
------------------------------------------------------------------------------
                   ___                                                        
                  /   \      - P O W E R E D   B Y -                         
                 /     \                                                     
                 |  |  |   _    _      __       _____    __    __             
                 |  |  |  | |  | |    /  \     |  _  \  |  |  /  |          
                  \  \/   | |  | |   /    \    | | | |  |  | /  /          
                 / \  \   | |__| |  /  /\  \   | |_| |  |  |/  /          
                |  |  |   |  __  | /  /__\  \  |    /   |      \           
                |  |  |   | |  | | |   __   |  |    \   |  |\   \          
                \     /   | |  | | |  |  |  |  | |\  \  |  | \   \       
                 \___/    |_|  |_| |__|  |__|  |_| \__\ |__|  \__/        
                                                                              
                      - O R C A' S   B I G   F R I E N D -                    
                                      &                                       
                       - I N T E G R A L  F E E D E R -                       
                                                                              
 v1 FN, 2020, v2 2021                                                         
------------------------------------------------------------------------------


Reading SHARK input file rho.SHARKINP.tmp ... ok
----------------------
SHARK INTEGRAL PACKAGE
----------------------

Number of atoms                             ...     11
Number of basis functions                   ...    286
Number of shells                            ...    108
Maximum angular momentum                    ...      4
Integral batch strategy                     ... SHARK/LIBINT Hybrid
RI-J (if used) integral strategy            ... SPLIT-RIJ (Revised 2003 algorithm where possible)
Printlevel                                  ...      1
Contraction scheme used                     ... SEGMENTED contraction
Coulomb Range Separation                    ... NOT USED
Exchange Range Separation                   ... NOT USED
Finite Nucleus Model                        ... NOT USED
Auxiliary Coulomb fitting basis             ... AVAILABLE
   # of basis functions in Aux-J            ...   1605
   # of shells in Aux-J                     ...    423
   Maximum angular momentum in Aux-J        ...      6
Auxiliary J/K fitting basis                 ... AVAILABLE
   # of basis functions in Aux-JK           ...   1605
   # of shells in Aux-JK                    ...    423
   Maximum angular momentum in Aux-JK       ...      6
Auxiliary Correlation fitting basis         ... AVAILABLE
   # of basis functions in Aux-C            ...   1605
   # of shells in Aux-C                     ...    423
   Maximum angular momentum in Aux-C        ...      6
Auxiliary 'external' fitting basis          ... NOT available
Integral threshold                          ...     1.000000e-12
Primitive cut-off                           ...     1.000000e-14
Primitive pair pre-selection threshold      ...     1.000000e-14

Calculating pre-screening integrals         ... done (  0.1 sec) Dimension = 108
Organizing shell pair data                  ... done (  0.0 sec)
Shell pair information
Total number of shell pairs                 ...      5886
Shell pairs after pre-screening             ...      4758
Total number of primitive shell pairs       ...     14179
Primitive shell pairs kept                  ...      9152
          la=0 lb=0:   1089 shell pairs
          la=1 lb=0:   1308 shell pairs
          la=1 lb=1:    419 shell pairs
          la=2 lb=0:    728 shell pairs
          la=2 lb=1:    448 shell pairs
          la=2 lb=2:    142 shell pairs
          la=3 lb=0:    260 shell pairs
          la=3 lb=1:    159 shell pairs
          la=3 lb=2:     88 shell pairs
          la=3 lb=3:     20 shell pairs
          la=4 lb=0:     44 shell pairs
          la=4 lb=1:     28 shell pairs
          la=4 lb=2:     18 shell pairs
          la=4 lb=3:      6 shell pairs
          la=4 lb=4:      1 shell pairs

Calculating one electron integrals          ... done (  0.0 sec)
Calculating RI/J V-Matrix + Cholesky decomp.... done (  0.3 sec)
Calculating RI/JK V-Matrix + Cholesky decomp... done (  0.2 sec)
Calculating RI/C V-Matrix + Cholesky decomp.... done (  0.2 sec)
Calculating Nuclear repulsion               ... done (  0.0 sec) ENN=    312.735559667197 Eh

SHARK setup successfully completed in   1.5 seconds

Maximum memory used throughout the entire GTOINT-calculation: 38.8 MB


           ************************************************************
           *        Program running with 40 parallel MPI-processes    *
           *              working on a common directory               *
           ************************************************************
------------------------------------------------------------------------------
                          ORCA RELATIVISTIC HAMILTONIAN
------------------------------------------------------------------------------

Relativistic Method            ... DKH
Order of DKH treatment         ...   2
Treatment of potential         ... V(e,N)
Eps parameter for DKH          ...   0.00000000010000
Nucleus model                  ... Point Nucleus
Speed of light used            ... 137.03598950000000


            ************************************************
            *        DOUGLAS-KROLL-HESS HAMILTONIAN        *
            *   Programmed by FN according to literature   *
            *        procedures. Special thanks to         *
            *       B.A. Hess, M. Reiher and A. Wolf       *
            *     University Erlangen-Nuernberg/Bonn       *
            ************************************************

Uncontracting the basis (first version)        ... done
Number of contracted basis functions           ...  286
Number of uncontracted basis functions         ...  391
Initializing the DKH file                      ... done
Calculating the relativistic integrals         ... done
Storing DKH matrices                           ... done
Code used for DKH trafo                        ... ORCA
Computing the DKH transformation               ... done
Storing the transformation variables           ... done
Transforming V and pVp to p**2 space           ... done
First transformation of V and pVp              ... done
Second transformation of Veff                  ... done
Adding kinetic energy                          ... done
Back transformation of Veff to r-space         ... done
Recovering DKH matrices                        ... done
Recontracting the H-matrix (first version)     ... done
Computing the DKH correction to the H-matrix   ... done
Reading the original H-matrix                  ... done
Adding DKH correction to the H-matrix          ... done
Storing the new modified H-matrix              ... done

Maximum memory used throughout the entire REL-calculation: 70.6 MB


           ************************************************************
           *        Program running with 40 parallel MPI-processes    *
           *              working on a common directory               *
           ************************************************************
-------------------------------------------------------------------------------
                                 ORCA SCF
-------------------------------------------------------------------------------

------------
SCF SETTINGS
------------
Hamiltonian:
 Ab initio Hamiltonian  Method          .... Hartree-Fock(GTOs)
 RI-approximation to the Coulomb term is turned on
   Number of AuxJ basis functions       .... 1605
   RIJ-COSX (HFX calculated with COS-X)).... on

Relativistic Settings:
 Scalar relativistic method             .... Douglas-Kroll-Hess
 Order of DKH procedure    Order        ....    2
 Mode of DKH-treatment                  .... V=V(e,N)
 Speed of light used       Velit        ....       137.035989
 Cutoff-constant           Eps          ....            1e-10 


General Settings:
 Integral files         IntName         .... rho
 Hartree-Fock type      HFTyp           .... CASSCF
 Total Charge           Charge          ....    0
 Multiplicity           Mult            ....    4
 Number of Electrons    NEL             ....   61
 Basis Dimension        Dim             ....  286
 Nuclear Repulsion      ENuc            ....    312.7355596672 Eh


Diagonalization of the overlap matrix:
Smallest eigenvalue                        ... 5.502e-04
Time for diagonalization                   ...    0.011 sec
Threshold for overlap eigenvalues          ... 1.000e-08
Number of eigenvalues below threshold      ... 0
Time for construction of square roots      ...    0.012 sec
Total time needed                          ...    0.027 sec

-----------------------------------------
INITIAL GUESS: POLARIZED ATOMIC DENSITIES
-----------------------------------------
The minimal basis has 41 functions
EHT matrix was diagonalized
Basis set overlap was calculated now projecting the orbitals
Using GuessMode=CMatrix for the initial guess
Initial orthogonal set was formed
CASSCF - fitting 2 shells:
   closed-shell contains  27 orbitals (  0 ...  26)
   active space contains   5 orbitals ( 27 ...  31)
Virtual orbitals were projected
Gram-Schmidt orthogonalization of all MOs with pivot on actives
Initial density was built
Canonicalizing active space vectors CAS(7,5) {27-31} C(286,286) Cact EHTact BOVL(41,286) COVL Diag BackTrafo Restore
Active space vectors have been canonicalized
                      ------------------
                      INITIAL GUESS DONE
                      ------------------
--------------------
COSX GRID GENERATION
--------------------

GRIDX 1
-------
General Integration Accuracy     IntAcc      ... 3.816
Radial Grid Type                 RadialGrid  ... OptM3 with GC (2021)
Angular Grid (max. ang.)         AngularGrid ... 1 (Lebedev-50)
Angular grid pruning method      GridPruning ... 4 (adaptive)
Weight generation scheme         WeightScheme... Becke
Basis function cutoff            BFCut       ... 1.0000e-12
Integration weight cutoff        WCut        ... 1.0000e-14
Angular grids for H and He will be reduced by one unit
Partially contracted basis set               ... on
Rotationally invariant grid construction     ... off

Total number of grid points                  ...     6886
Total number of batches                      ...      113
Average number of points per batch           ...       60
Average number of grid points per atom       ...      626

GRIDX 2
-------
General Integration Accuracy     IntAcc      ... 4.020
Radial Grid Type                 RadialGrid  ... OptM3 with GC (2021)
Angular Grid (max. ang.)         AngularGrid ... 2 (Lebedev-110)
Angular grid pruning method      GridPruning ... 4 (adaptive)
Weight generation scheme         WeightScheme... Becke
Basis function cutoff            BFCut       ... 1.0000e-12
Integration weight cutoff        WCut        ... 1.0000e-14
Angular grids for H and He will be reduced by one unit
Partially contracted basis set               ... on
Rotationally invariant grid construction     ... off

Total number of grid points                  ...    14794
Total number of batches                      ...      237
Average number of points per batch           ...       62
Average number of grid points per atom       ...     1345

GRIDX 3
-------
General Integration Accuracy     IntAcc      ... 4.338
Radial Grid Type                 RadialGrid  ... OptM3 with GC (2021)
Angular Grid (max. ang.)         AngularGrid ... 3 (Lebedev-194)
Angular grid pruning method      GridPruning ... 4 (adaptive)
Weight generation scheme         WeightScheme... Becke
Basis function cutoff            BFCut       ... 1.0000e-12
Integration weight cutoff        WCut        ... 1.0000e-14
Angular grids for H and He will be reduced by one unit
Partially contracted basis set               ... on
Rotationally invariant grid construction     ... off

Total number of grid points                  ...    32832
Total number of batches                      ...      520
Average number of points per batch           ...       63
Average number of grid points per atom       ...     2985

Time for X-Grid setup             =    0.267 sec



 ... the calculation is a CASSCF calculation -I'm leaving here GOOD LUCK!!!

mel0002:rank20.orca_casscf_mpi: Failed to modify UD QP to INIT on mlx5_0: Operation not permitted
mel0002:rank17.orca_casscf_mpi: Failed to modify UD QP to INIT on mlx5_0: Operation not permitted
mel0002:rank0.orca_casscf_mpi: Failed to modify UD QP to INIT on mlx5_0: Operation not permitted
mel0002:rank5.orca_casscf_mpi: Failed to modify UD QP to INIT on mlx5_0: Operation not permitted
mel0002:rank16.orca_casscf_mpi: Failed to modify UD QP to INIT on mlx5_0: Operation not permitted
mel0002:rank11.orca_casscf_mpi: Failed to modify UD QP to INIT on mlx5_0: Operation not permitted
mel0002:rank4.orca_casscf_mpi: Failed to modify UD QP to INIT on mlx5_0: Operation not permitted
mel0002:rank17.orca_casscf_mpi: Failed to modify UD QP to INIT on mlx5_0: Operation not permitted
mel0002:rank14.orca_casscf_mpi: Failed to modify UD QP to INIT on mlx5_0: Operation not permitted
mel0002:rank26.orca_casscf_mpi: Failed to modify UD QP to INIT on mlx5_0: Operation not permitted
mel0002:rank0.orca_casscf_mpi: Failed to modify UD QP to INIT on mlx5_0: Operation not permitted
mel0002:rank19.orca_casscf_mpi: Failed to modify UD QP to INIT on mlx5_0: Operation not permitted
mel0002:rank5.orca_casscf_mpi: Failed to modify UD QP to INIT on mlx5_0: Operation not permitted
mel0002:rank20.orca_casscf_mpi: Failed to modify UD QP to INIT on mlx5_0: Operation not permitted
mel0002:rank17.orca_casscf_mpi: Failed to modify UD QP to INIT on mlx5_0: Operation not permitted
mel0002:rank32.orca_casscf_mpi: Failed to modify UD QP to INIT on mlx5_0: Operation not permitted
mel0002:rank16.orca_casscf_mpi: Failed to modify UD QP to INIT on mlx5_0: Operation not permitted
mel0002:rank0.orca_casscf_mpi: Failed to modify UD QP to INIT on mlx5_0: Operation not permitted
mel0002:rank8.orca_casscf_mpi: Failed to modify UD QP to INIT on mlx5_0: Operation not permitted
mel0002:rank7.orca_casscf_mpi: Failed to modify UD QP to INIT on mlx5_0: Operation not permitted
mel0002:rank5.orca_casscf_mpi: Failed to modify UD QP to INIT on mlx5_0: Operation not permitted
mel0002:rank3.orca_casscf_mpi: Failed to modify UD QP to INIT on mlx5_0: Operation not permitted
mel0002:rank20.orca_casscf_mpi: Failed to modify UD QP to INIT on mlx5_0: Operation not permitted
mel0002:rank14.orca_casscf_mpi: Failed to modify UD QP to INIT on mlx5_0: Operation not permitted
mel0002:rank26.orca_casscf_mpi: Failed to modify UD QP to INIT on mlx5_0: Operation not permitted
mel0002:rank10.orca_casscf_mpi: Failed to modify UD QP to INIT on mlx5_0: Operation not permitted
mel0002:rank4.orca_casscf_mpi: Failed to modify UD QP to INIT on mlx5_0: Operation not permitted
mel0002:rank19.orca_casscf_mpi: Failed to modify UD QP to INIT on mlx5_0: Operation not permitted
mel0002:rank11.orca_casscf_mpi: Failed to modify UD QP to INIT on mlx5_0: Operation not permitted
mel0002:rank18.orca_casscf_mpi: Failed to modify UD QP to INIT on mlx5_0: Operation not permitted
mel0002:rank33.orca_casscf_mpi: Failed to modify UD QP to INIT on mlx5_0: Operation not permitted
mel0002:rank14.orca_casscf_mpi: Failed to modify UD QP to INIT on mlx5_0: Operation not permitted
mel0002:rank31.orca_casscf_mpi: Failed to modify UD QP to INIT on mlx5_0: Operation not permitted
mel0002:rank32.orca_casscf_mpi: Failed to modify UD QP to INIT on mlx5_0: Operation not permitted
mel0002:rank26.orca_casscf_mpi: Failed to modify UD QP to INIT on mlx5_0: Operation not permitted
mel0002:rank7.orca_casscf_mpi: Failed to modify UD QP to INIT on mlx5_0: Operation not permitted
mel0002:rank16.orca_casscf_mpi: Failed to modify UD QP to INIT on mlx5_0: Operation not permitted
mel0002:rank3.orca_casscf_mpi: Failed to modify UD QP to INIT on mlx5_0: Operation not permitted
mel0002:rank4.orca_casscf_mpi: Failed to modify UD QP to INIT on mlx5_0: Operation not permitted
mel0002:rank19.orca_casscf_mpi: Failed to modify UD QP to INIT on mlx5_0: Operation not permitted
mel0002:rank11.orca_casscf_mpi: Failed to modify UD QP to INIT on mlx5_0: Operation not permitted
mel0002:rank1.orca_casscf_mpi: Failed to modify UD QP to INIT on mlx5_0: Operation not permitted
mel0002:rank32.orca_casscf_mpi: Failed to modify UD QP to INIT on mlx5_0: Operation not permitted
mel0002:rank30.orca_casscf_mpi: Failed to modify UD QP to INIT on mlx5_0: Operation not permitted
mel0002:rank39.orca_casscf_mpi: Failed to modify UD QP to INIT on mlx5_0: Operation not permitted
mel0002:rank37.orca_casscf_mpi: Failed to modify UD QP to INIT on mlx5_0: Operation not permitted
mel0002:rank8.orca_casscf_mpi: Failed to modify UD QP to INIT on mlx5_0: Operation not permitted
mel0002:rank7.orca_casscf_mpi: Failed to modify UD QP to INIT on mlx5_0: Operation not permitted
mel0002:rank33.orca_casscf_mpi: Failed to modify UD QP to INIT on mlx5_0: Operation not permitted
mel0002:rank25.orca_casscf_mpi: Failed to modify UD QP to INIT on mlx5_0: Operation not permitted
mel0002:rank3.orca_casscf_mpi: Failed to modify UD QP to INIT on mlx5_0: Operation not permitted
mel0002:rank29.orca_casscf_mpi: Failed to modify UD QP to INIT on mlx5_0: Operation not permitted
mel0002:rank31.orca_casscf_mpi: Failed to modify UD QP to INIT on mlx5_0: Operation not permitted
mel0002:rank23.orca_casscf_mpi: Failed to modify UD QP to INIT on mlx5_0: Operation not permitted
mel0002:rank10.orca_casscf_mpi: Failed to modify UD QP to INIT on mlx5_0: Operation not permitted
mel0002:rank18.orca_casscf_mpi: Failed to modify UD QP to INIT on mlx5_0: Operation not permitted
mel0002:rank8.orca_casscf_mpi: Failed to modify UD QP to INIT on mlx5_0: Operation not permitted
mel0002:rank30.orca_casscf_mpi: Failed to modify UD QP to INIT on mlx5_0: Operation not permitted
mel0002:rank1.orca_casscf_mpi: Failed to modify UD QP to INIT on mlx5_0: Operation not permitted
mel0002:rank37.orca_casscf_mpi: Failed to modify UD QP to INIT on mlx5_0: Operation not permitted
mel0002:rank33.orca_casscf_mpi: Failed to modify UD QP to INIT on mlx5_0: Operation not permitted
mel0002:rank36.orca_casscf_mpi: Failed to modify UD QP to INIT on mlx5_0: Operation not permitted
mel0002:rank13.orca_casscf_mpi: Failed to modify UD QP to INIT on mlx5_0: Operation not permitted
mel0002:rank12.orca_casscf_mpi: Failed to modify UD QP to INIT on mlx5_0: Operation not permitted
mel0002:rank18.orca_casscf_mpi: Failed to modify UD QP to INIT on mlx5_0: Operation not permitted
mel0002:rank10.orca_casscf_mpi: Failed to modify UD QP to INIT on mlx5_0: Operation not permitted
mel0002:rank21.orca_casscf_mpi: Failed to modify UD QP to INIT on mlx5_0: Operation not permitted
mel0002:rank35.orca_casscf_mpi: Failed to modify UD QP to INIT on mlx5_0: Operation not permitted
mel0002:rank25.orca_casscf_mpi: Failed to modify UD QP to INIT on mlx5_0: Operation not permitted
mel0002:rank30.orca_casscf_mpi: Failed to modify UD QP to INIT on mlx5_0: Operation not permitted
mel0002:rank9.orca_casscf_mpi: Failed to modify UD QP to INIT on mlx5_0: Operation not permitted
mel0002:rank39.orca_casscf_mpi: Failed to modify UD QP to INIT on mlx5_0: Operation not permitted
mel0002:rank37.orca_casscf_mpi: Failed to modify UD QP to INIT on mlx5_0: Operation not permitted
mel0002:rank1.orca_casscf_mpi: Failed to modify UD QP to INIT on mlx5_0: Operation not permitted
mel0002:rank31.orca_casscf_mpi: Failed to modify UD QP to INIT on mlx5_0: Operation not permitted
mel0002:rank2.orca_casscf_mpi: Failed to modify UD QP to INIT on mlx5_0: Operation not permitted
mel0002:rank24.orca_casscf_mpi: Failed to modify UD QP to INIT on mlx5_0: Operation not permitted
mel0002:rank36.orca_casscf_mpi: Failed to modify UD QP to INIT on mlx5_0: Operation not permitted
mel0002:rank25.orca_casscf_mpi: Failed to modify UD QP to INIT on mlx5_0: Operation not permitted
mel0002:rank29.orca_casscf_mpi: Failed to modify UD QP to INIT on mlx5_0: Operation not permitted
mel0002:rank27.orca_casscf_mpi: Failed to modify UD QP to INIT on mlx5_0: Operation not permitted
mel0002:rank6.orca_casscf_mpi: Failed to modify UD QP to INIT on mlx5_0: Operation not permitted
mel0002:rank13.orca_casscf_mpi: Failed to modify UD QP to INIT on mlx5_0: Operation not permitted
mel0002:rank22.orca_casscf_mpi: Failed to modify UD QP to INIT on mlx5_0: Operation not permitted
mel0002:rank39.orca_casscf_mpi: Failed to modify UD QP to INIT on mlx5_0: Operation not permitted
mel0002:rank35.orca_casscf_mpi: Failed to modify UD QP to INIT on mlx5_0: Operation not permitted
mel0002:rank23.orca_casscf_mpi: Failed to modify UD QP to INIT on mlx5_0: Operation not permitted
mel0002:rank15.orca_casscf_mpi: Failed to modify UD QP to INIT on mlx5_0: Operation not permitted
mel0002:rank34.orca_casscf_mpi: Failed to modify UD QP to INIT on mlx5_0: Operation not permitted
mel0002:rank38.orca_casscf_mpi: Failed to modify UD QP to INIT on mlx5_0: Operation not permitted
mel0002:rank36.orca_casscf_mpi: Failed to modify UD QP to INIT on mlx5_0: Operation not permitted
mel0002:rank21.orca_casscf_mpi: Failed to modify UD QP to INIT on mlx5_0: Operation not permitted
mel0002:rank9.orca_casscf_mpi: Failed to modify UD QP to INIT on mlx5_0: Operation not permitted
mel0002:rank12.orca_casscf_mpi: Failed to modify UD QP to INIT on mlx5_0: Operation not permitted
mel0002:rank13.orca_casscf_mpi: Failed to modify UD QP to INIT on mlx5_0: Operation not permitted
mel0002:rank2.orca_casscf_mpi: Failed to modify UD QP to INIT on mlx5_0: Operation not permitted
mel0002:rank29.orca_casscf_mpi: Failed to modify UD QP to INIT on mlx5_0: Operation not permitted
mel0002:rank24.orca_casscf_mpi: Failed to modify UD QP to INIT on mlx5_0: Operation not permitted
mel0002:rank35.orca_casscf_mpi: Failed to modify UD QP to INIT on mlx5_0: Operation not permitted
mel0002:rank6.orca_casscf_mpi: Failed to modify UD QP to INIT on mlx5_0: Operation not permitted
mel0002:rank23.orca_casscf_mpi: Failed to modify UD QP to INIT on mlx5_0: Operation not permitted
mel0002:rank27.orca_casscf_mpi: Failed to modify UD QP to INIT on mlx5_0: Operation not permitted
mel0002:rank9.orca_casscf_mpi: Failed to modify UD QP to INIT on mlx5_0: Operation not permitted
mel0002:rank22.orca_casscf_mpi: Failed to modify UD QP to INIT on mlx5_0: Operation not permitted
mel0002:rank2.orca_casscf_mpi: Failed to modify UD QP to INIT on mlx5_0: Operation not permitted
mel0002:rank38.orca_casscf_mpi: Failed to modify UD QP to INIT on mlx5_0: Operation not permitted
mel0002:rank24.orca_casscf_mpi: Failed to modify UD QP to INIT on mlx5_0: Operation not permitted
mel0002:rank15.orca_casscf_mpi: Failed to modify UD QP to INIT on mlx5_0: Operation not permitted
mel0002:rank34.orca_casscf_mpi: Failed to modify UD QP to INIT on mlx5_0: Operation not permitted
mel0002:rank21.orca_casscf_mpi: Failed to modify UD QP to INIT on mlx5_0: Operation not permitted
mel0002:rank6.orca_casscf_mpi: Failed to modify UD QP to INIT on mlx5_0: Operation not permitted
mel0002:rank28.orca_casscf_mpi: Failed to modify UD QP to INIT on mlx5_0: Operation not permitted
mel0002:rank12.orca_casscf_mpi: Failed to modify UD QP to INIT on mlx5_0: Operation not permitted
mel0002:rank22.orca_casscf_mpi: Failed to modify UD QP to INIT on mlx5_0: Operation not permitted
mel0002:rank38.orca_casscf_mpi: Failed to modify UD QP to INIT on mlx5_0: Operation not permitted
mel0002:rank15.orca_casscf_mpi: Failed to modify UD QP to INIT on mlx5_0: Operation not permitted
mel0002:rank34.orca_casscf_mpi: Failed to modify UD QP to INIT on mlx5_0: Operation not permitted
mel0002:rank27.orca_casscf_mpi: Failed to modify UD QP to INIT on mlx5_0: Operation not permitted
mel0002:rank28.orca_casscf_mpi: Failed to modify UD QP to INIT on mlx5_0: Operation not permitted
mel0002:rank28.orca_casscf_mpi: Failed to modify UD QP to INIT on mlx5_0: Operation not permitted
mel0002:rank20.orca_casscf_mpi: Failed to modify UD QP to INIT on mlx5_0: Operation not permitted
mel0002:rank33.orca_casscf_mpi: Failed to modify UD QP to INIT on mlx5_0: Operation not permitted
mel0002:rank19.orca_casscf_mpi: Failed to modify UD QP to INIT on mlx5_0: Operation not permitted
mel0002:rank25.orca_casscf_mpi: Failed to modify UD QP to INIT on mlx5_0: Operation not permitted
mel0002:rank26.orca_casscf_mpi: Failed to modify UD QP to INIT on mlx5_0: Operation not permitted
mel0002:rank7.orca_casscf_mpi: Failed to modify UD QP to INIT on mlx5_0: Operation not permitted
mel0002:rank11.orca_casscf_mpi: Failed to modify UD QP to INIT on mlx5_0: Operation not permitted
mel0002:rank17.orca_casscf_mpi: Failed to modify UD QP to INIT on mlx5_0: Operation not permitted
mel0002:rank36.orca_casscf_mpi: Failed to modify UD QP to INIT on mlx5_0: Operation not permitted
mel0002:rank3.orca_casscf_mpi: Failed to modify UD QP to INIT on mlx5_0: Operation not permitted
mel0002:rank4.orca_casscf_mpi: Failed to modify UD QP to INIT on mlx5_0: Operation not permitted
mel0002:rank14.orca_casscf_mpi: Failed to modify UD QP to INIT on mlx5_0: Operation not permitted
mel0002:rank30.orca_casscf_mpi: Failed to modify UD QP to INIT on mlx5_0: Operation not permitted
mel0002:rank1.orca_casscf_mpi: Failed to modify UD QP to INIT on mlx5_0: Operation not permitted
mel0002:rank0.orca_casscf_mpi: Failed to modify UD QP to INIT on mlx5_0: Operation not permitted
mel0002:rank32.orca_casscf_mpi: Failed to modify UD QP to INIT on mlx5_0: Operation not permitted
mel0002:rank16.orca_casscf_mpi: Failed to modify UD QP to INIT on mlx5_0: Operation not permitted
mel0002:rank39.orca_casscf_mpi: Failed to modify UD QP to INIT on mlx5_0: Operation not permitted
mel0002:rank5.orca_casscf_mpi: Failed to modify UD QP to INIT on mlx5_0: Operation not permitted
mel0002:rank10.orca_casscf_mpi: Failed to modify UD QP to INIT on mlx5_0: Operation not permitted
mel0002:rank31.orca_casscf_mpi: Failed to modify UD QP to INIT on mlx5_0: Operation not permitted
mel0002:rank37.orca_casscf_mpi: Failed to modify UD QP to INIT on mlx5_0: Operation not permitted
mel0002:rank8.orca_casscf_mpi: Failed to modify UD QP to INIT on mlx5_0: Operation not permitted
mel0002:rank18.orca_casscf_mpi: Failed to modify UD QP to INIT on mlx5_0: Operation not permitted
mel0002:rank27.orca_casscf_mpi: Failed to modify UD QP to INIT on mlx5_0: Operation not permitted
mel0002:rank24.orca_casscf_mpi: Failed to modify UD QP to INIT on mlx5_0: Operation not permitted
mel0002:rank29.orca_casscf_mpi: Failed to modify UD QP to INIT on mlx5_0: Operation not permitted
mel0002:rank35.orca_casscf_mpi: Failed to modify UD QP to INIT on mlx5_0: Operation not permitted
mel0002:rank13.orca_casscf_mpi: Failed to modify UD QP to INIT on mlx5_0: Operation not permitted
mel0002:rank9.orca_casscf_mpi: Failed to modify UD QP to INIT on mlx5_0: Operation not permitted
mel0002:rank34.orca_casscf_mpi: Failed to modify UD QP to INIT on mlx5_0: Operation not permitted
mel0002:rank2.orca_casscf_mpi: Failed to modify UD QP to INIT on mlx5_0: Operation not permitted
mel0002:rank23.orca_casscf_mpi: Failed to modify UD QP to INIT on mlx5_0: Operation not permitted
mel0002:rank38.orca_casscf_mpi: Failed to modify UD QP to INIT on mlx5_0: Operation not permitted
mel0002:rank22.orca_casscf_mpi: Failed to modify UD QP to INIT on mlx5_0: Operation not permitted
mel0002:rank28.orca_casscf_mpi: Failed to modify UD QP to INIT on mlx5_0: Operation not permitted
mel0002:rank6.orca_casscf_mpi: Failed to modify UD QP to INIT on mlx5_0: Operation not permitted
mel0002:rank15.orca_casscf_mpi: Failed to modify UD QP to INIT on mlx5_0: Operation not permitted
mel0002:rank12.orca_casscf_mpi: Failed to modify UD QP to INIT on mlx5_0: Operation not permitted
mel0002:rank21.orca_casscf_mpi: Failed to modify UD QP to INIT on mlx5_0: Operation not permitted


           ************************************************************
           *        Program running with 40 parallel MPI-processes    *
           *              working on a common directory               *
           ************************************************************
-------------------------------------------------------------------------------
                              ORCA-CASSCF
-------------------------------------------------------------------------------

Setting up the integral package       ... done
Setting up the integral package (RI)  ... done
Building the CAS space                ... done (10 configurations for Mult=4)
Building the CAS space                ... done (30 configurations for Mult=2)

SYSTEM-SPECIFIC SETTINGS:
Number of active electrons          ...    7
Number of active orbitals           ...    5
Total number of electrons           ...   61
Total number of orbitals            ...  286
Total number aux. functions         ... 1605

Determined orbital ranges:
   Internal       0 -   26 (  27 orbitals)
   Active        27 -   31 (   5 orbitals)
   External      32 -  285 ( 254 orbitals)
Number of rotation parameters      ...   8263

CI-STEP:
CI strategy                         ... General CI
Number of multiplicity blocks       ...    2
BLOCK  1 WEIGHT=   0.5000
  Multiplicity                      ...    4
  #(Configurations)                 ...   10
  #(CSFs)                           ...   10
  #(Roots)                          ...   10
    ROOT=0 WEIGHT=    0.050000
    ROOT=1 WEIGHT=    0.050000
    ROOT=2 WEIGHT=    0.050000
    ROOT=3 WEIGHT=    0.050000
    ROOT=4 WEIGHT=    0.050000
    ROOT=5 WEIGHT=    0.050000
    ROOT=6 WEIGHT=    0.050000
    ROOT=7 WEIGHT=    0.050000
    ROOT=8 WEIGHT=    0.050000
    ROOT=9 WEIGHT=    0.050000

BLOCK  2 WEIGHT=   0.5000
  Multiplicity                      ...    2
  #(Configurations)                 ...   30
  #(CSFs)                           ...   40
  #(Roots)                          ...   40
    ROOT=0 WEIGHT=    0.012500
    ROOT=1 WEIGHT=    0.012500
    ROOT=2 WEIGHT=    0.012500
    ROOT=3 WEIGHT=    0.012500
    ROOT=4 WEIGHT=    0.012500
    ROOT=5 WEIGHT=    0.012500
    ROOT=6 WEIGHT=    0.012500
    ROOT=7 WEIGHT=    0.012500
    ROOT=8 WEIGHT=    0.012500
    ROOT=9 WEIGHT=    0.012500
    ROOT=10 WEIGHT=    0.012500
    ROOT=11 WEIGHT=    0.012500
    ROOT=12 WEIGHT=    0.012500
    ROOT=13 WEIGHT=    0.012500
    ROOT=14 WEIGHT=    0.012500
    ROOT=15 WEIGHT=    0.012500
    ROOT=16 WEIGHT=    0.012500
    ROOT=17 WEIGHT=    0.012500
    ROOT=18 WEIGHT=    0.012500
    ROOT=19 WEIGHT=    0.012500
    ROOT=20 WEIGHT=    0.012500
    ROOT=21 WEIGHT=    0.012500
    ROOT=22 WEIGHT=    0.012500
    ROOT=23 WEIGHT=    0.012500
    ROOT=24 WEIGHT=    0.012500
    ROOT=25 WEIGHT=    0.012500
    ROOT=26 WEIGHT=    0.012500
    ROOT=27 WEIGHT=    0.012500
    ROOT=28 WEIGHT=    0.012500
    ROOT=29 WEIGHT=    0.012500
    ROOT=30 WEIGHT=    0.012500
    ROOT=31 WEIGHT=    0.012500
    ROOT=32 WEIGHT=    0.012500
    ROOT=33 WEIGHT=    0.012500
    ROOT=34 WEIGHT=    0.012500
    ROOT=35 WEIGHT=    0.012500
    ROOT=36 WEIGHT=    0.012500
    ROOT=37 WEIGHT=    0.012500
    ROOT=38 WEIGHT=    0.012500
    ROOT=39 WEIGHT=    0.012500

  PrintLevel                        ...    1
  N(GuessMat)                       ...       512
  MaxDim(CI)                        ...        10
  MaxIter(CI)                       ...        64
  Energy Tolerance CI               ...  1.00e-09
  Residual Tolerance CI             ...  1.00e-09
  Shift(CI)                         ...  1.00e-04

INTEGRAL-TRANSFORMATION-STEP:
  Algorithm                         ... RI-MO

ORBITAL-IMPROVEMENT-STEP:
  Algorithm                         ... SuperCI
  Default Parametrization           ... CAYLEY
  Act-Act rotations                 ... depends on algorithm used
  FreezeIE                          ... 95.00% of ||g||
  Until reaching FreezeIE rotations with active orbitals are damped. 

  Approx. Fock at                   ... 0.000000e+00 density convergence
  Level shift                       ... energy gap dependent. Minimum=1.000
  Switch step at gradient           ...  3.00e-02 
  Switch step at iteration          ...        50   
  Switch step to                    ... DIIS    

SCF-SETTINGS:
  Incremental                       ... off
  RIJCOSX approximation             ... on
  UseFinalGrid                      ... on
  RI-JK approximation               ... off
  AO integral handling              ... DIRECT
  Integral Neglect Thresh           ...  1.00e-12
  Primitive cutoff TCut             ...  1.00e-14
  Energy convergence tolerance      ...  1.00e-08
  Orbital gradient convergence      ...  1.00e-05
  Max. number of iterations         ...       100  


PROPERTIES-SETTINGS:
  Spin orbit coupling               ... true
  GTensor                           ... true

FINAL ORBITALS:
  Active   Orbitals                 ... d-orbitals 
  Internal Orbitals                 ... canonical 
  External Orbitals                 ... canonical 

------------------
CAS-SCF ITERATIONS
------------------


MACRO-ITERATION   1: 
   --- Canonicalize Internal Space
   --- Canonicalize External Space
   --- Inactive Energy E0 = -1596.14804707 Eh
CI-ITERATION   0: 
 -1618.875636592   0.000000000000 (    0.01)
 -1618.875629660   0.000000000000
 -1618.866680818   0.000000000000
 -1618.866667924   0.000000000000
 -1618.864985634   0.000000000000
 -1618.856818599   0.000000000000
 -1618.856210486   0.000000000000
 -1618.793189828   0.000000000000
 -1618.769915889   0.000000000000
 -1618.766831119   0.000000000000
   CI-PROBLEM SOLVED
   DENSITIES MADE
CI-ITERATION   0: 
 -1618.801548530   0.000000000000 (    0.01)
 -1618.796394732   0.000000000000
 -1618.794150760   0.000000000000
 -1618.793988975   0.000000000000
 -1618.793376562   0.000000000000
 -1618.788500487   0.000000000000
 -1618.786516044   0.000000000000
 -1618.784542890   0.000000000000
 -1618.781735175   0.000000000000
 -1618.780256542   0.000000000000
 -1618.778470753   0.000000000000
 -1618.778418745   0.000000000000
 -1618.775149475   0.000000000000
 -1618.774577714   0.000000000000
 -1618.768856809   0.000000000000
 -1618.767882764   0.000000000000
 -1618.757637551   0.000000000000
 -1618.757414977   0.000000000000
 -1618.752107672   0.000000000000
 -1618.752082269   0.000000000000
 -1618.750818255   0.000000000000
 -1618.738680151   0.000000000000
 -1618.737831528   0.000000000000
 -1618.734411284   0.000000000000
 -1618.734411277   0.000000000000
 -1618.730860549   0.000000000000
 -1618.724478985   0.000000000000
 -1618.724478983   0.000000000000
 -1618.680788432   0.000000000000
 -1618.679386364   0.000000000000
 -1618.676793600   0.000000000000
 -1618.674812127   0.000000000000
 -1618.672323816   0.000000000000
 -1618.663418508   0.000000000000
 -1618.663418056   0.000000000000
 -1618.588277288   0.000000000000
 -1618.577876390   0.000000000000
 -1618.576983265   0.000000000000
 -1618.529686410   0.000000000000
 -1618.529681079   0.000000000000
   CI-PROBLEM SOLVED
   DENSITIES MADE

                 <<<<<<<<<<<<<<<<<<INITIAL CI STATE CHECK>>>>>>>>>>>>>>>>>>

BLOCK  1 MULT= 4 NROOTS=10 
ROOT   0:  E=   -1618.8756365924 Eh
      0.52788 [     8]: 21211
      0.22670 [     2]: 11221
      0.12391 [     3]: 12112
      0.08120 [     9]: 22111
      0.02331 [     4]: 12121
      0.00819 [     1]: 11212
      0.00614 [     6]: 21112
      0.00263 [     7]: 21121
ROOT   1:  E=   -1618.8756296598 Eh  0.000 eV      1.5 cm**-1
      0.52718 [     9]: 22111
      0.22601 [     4]: 12121
      0.12504 [     1]: 11212
      0.08109 [     8]: 21211
      0.02237 [     2]: 11221
      0.00881 [     3]: 12112
      0.00696 [     7]: 21121
ROOT   2:  E=   -1618.8666808184 Eh  0.244 eV   1965.6 cm**-1
      0.25426 [     3]: 12112
      0.19573 [     8]: 21211
      0.15858 [     1]: 11212
      0.15531 [     9]: 22111
      0.15294 [     2]: 11221
      0.07248 [     4]: 12121
      0.00717 [     6]: 21112
ROOT   3:  E=   -1618.8666679242 Eh  0.244 eV   1968.4 cm**-1
      0.24945 [     1]: 11212
      0.19785 [     9]: 22111
      0.15795 [     8]: 21211
      0.15660 [     4]: 12121
      0.15362 [     3]: 12112
      0.07761 [     2]: 11221
      0.00618 [     7]: 21121
ROOT   4:  E=   -1618.8649856342 Eh  0.290 eV   2337.6 cm**-1
      0.65453 [     5]: 12211
      0.27975 [     0]: 11122
      0.03558 [     6]: 21112
      0.01306 [     4]: 12121
      0.00716 [     2]: 11221
      0.00366 [     9]: 22111
ROOT   5:  E=   -1618.8568185993 Eh  0.512 eV   4130.1 cm**-1
      0.24111 [     2]: 11221
      0.23293 [     7]: 21121
      0.22152 [     3]: 12112
      0.14647 [     4]: 12121
      0.12258 [     1]: 11212
      0.01854 [     8]: 21211
      0.01557 [     9]: 22111
ROOT   6:  E=   -1618.8562104861 Eh  0.529 eV   4263.5 cm**-1
      0.24735 [     4]: 12121
      0.23054 [     1]: 11212
      0.16458 [     6]: 21112
      0.14940 [     2]: 11221
      0.12468 [     3]: 12112
      0.03084 [     5]: 12211
      0.01929 [     0]: 11122
      0.01740 [     9]: 22111
      0.01486 [     8]: 21211
ROOT   7:  E=   -1618.7931898284 Eh  2.243 eV  18095.0 cm**-1
      0.62024 [     0]: 11122
      0.30878 [     5]: 12211
      0.05861 [     6]: 21112
      0.00360 [     4]: 12121
      0.00328 [     1]: 11212
ROOT   8:  E=   -1618.7699158887 Eh  2.877 eV  23203.0 cm**-1
      0.74555 [     7]: 21121
      0.08326 [     2]: 11221
      0.07589 [     3]: 12112
      0.04676 [     4]: 12121
      0.04264 [     1]: 11212
      0.00428 [     6]: 21112
ROOT   9:  E=   -1618.7668311191 Eh  2.961 eV  23880.0 cm**-1
      0.71973 [     6]: 21112
      0.07892 [     0]: 11122
      0.06435 [     4]: 12121
      0.05789 [     1]: 11212
      0.03744 [     2]: 11221
      0.03329 [     3]: 12112
      0.00372 [     7]: 21121
      0.00350 [     5]: 12211

BLOCK  2 MULT= 2 NROOTS=40 
ROOT   0:  E=   -1618.8015485300 Eh
      0.29489 [    12]: 12211
      0.28565 [    28]: 22201
      0.06459 [     6]: 11212
      0.05277 [    10]: 12121
      0.04391 [     9]: 12112
      0.03505 [     3]: 02221
      0.02980 [    26]: 22111
      0.02893 [    16]: 20221
      0.02837 [     7]: 11221
      0.02788 [    24]: 22021
      0.02638 [    20]: 21202
      0.02018 [    18]: 21112
      0.01677 [     5]: 11122
      0.01504 [    25]: 22102
      0.01235 [    21]: 21211
      0.00516 [    22]: 21220
      0.00271 [    29]: 22210
ROOT   1:  E=   -1618.7963947320 Eh  0.140 eV   1131.1 cm**-1
      0.13822 [     9]: 12112
      0.12886 [    11]: 12202
      0.10669 [     6]: 11212
      0.10527 [     2]: 02212
      0.07750 [    29]: 22210
      0.06725 [     7]: 11221
      0.06339 [    21]: 21211
      0.06042 [    25]: 22102
      0.03743 [    20]: 21202
      0.03058 [    10]: 12121
      0.02449 [    27]: 22120
      0.02252 [    26]: 22111
      0.02078 [    23]: 22012
      0.02063 [    15]: 20212
      0.01579 [    19]: 21121
      0.01272 [     4]: 10222
      0.01271 [     8]: 12022
      0.01248 [     1]: 02122
      0.01206 [    13]: 12220
      0.01134 [     0]: 01222
      0.01042 [    22]: 21220
ROOT   2:  E=   -1618.7941507603 Eh  0.201 eV   1623.6 cm**-1
      0.13594 [    21]: 21211
      0.12413 [     6]: 11212
      0.11955 [    26]: 22111
      0.11805 [    10]: 12121
      0.09673 [     9]: 12112
      0.09620 [     7]: 11221
      0.08954 [    29]: 22210
      0.07348 [    13]: 12220
      0.02074 [    11]: 12202
      0.01813 [     8]: 12022
      0.01658 [     4]: 10222
      0.01314 [    24]: 22021
      0.01270 [    20]: 21202
      0.01189 [    27]: 22120
      0.01066 [    18]: 21112
      0.01023 [    15]: 20212
      0.00869 [    16]: 20221
      0.00557 [    23]: 22012
      0.00430 [     5]: 11122
      0.00411 [    19]: 21121
ROOT   3:  E=   -1618.7939889748 Eh  0.206 eV   1659.1 cm**-1
      0.20372 [     9]: 12112
      0.18308 [     7]: 11221
      0.15433 [     6]: 11212
      0.14266 [    10]: 12121
      0.07354 [    21]: 21211
      0.05578 [    25]: 22102
      0.04489 [    26]: 22111
      0.03385 [    19]: 21121
      0.03172 [    20]: 21202
      0.01995 [    27]: 22120
      0.01130 [    12]: 12211
      0.00867 [    15]: 20212
      0.00783 [    23]: 22012
      0.00582 [    22]: 21220
      0.00492 [     1]: 02122
      0.00471 [     0]: 01222
      0.00384 [     4]: 10222
      0.00312 [     8]: 12022
ROOT   4:  E=   -1618.7933765620 Eh  0.222 eV   1793.5 cm**-1
      0.27824 [    29]: 22210
      0.10833 [    10]: 12121
      0.09932 [     7]: 11221
      0.06159 [    13]: 12220
      0.06131 [    27]: 22120
      0.05027 [    22]: 21220
      0.04452 [     6]: 11212
      0.04397 [    25]: 22102
      0.03862 [    20]: 21202
      0.03015 [     9]: 12112
      0.02892 [    23]: 22012
      0.02674 [    11]: 12202
      0.02393 [    19]: 21121
      0.02291 [    15]: 20212
      0.02053 [     4]: 10222
      0.01939 [     8]: 12022
      0.00960 [    21]: 21211
      0.00883 [    16]: 20221
      0.00664 [    18]: 21112
      0.00460 [    24]: 22021
      0.00424 [    26]: 22111
ROOT   5:  E=   -1618.7885004866 Eh  0.355 eV   2863.7 cm**-1
      0.21085 [    12]: 12211
      0.10008 [     0]: 01222
      0.09835 [    26]: 22111
      0.09420 [     1]: 02122
      0.09405 [    21]: 21211
      0.09188 [     3]: 02221
      0.06931 [    10]: 12121
      0.05285 [     6]: 11212
      0.04499 [     7]: 11221
      0.03483 [    28]: 22201
      0.03322 [     9]: 12112
      0.03099 [     5]: 11122
      0.00971 [    17]: 21022
      0.00927 [    14]: 20122
      0.00567 [    18]: 21112
      0.00456 [    25]: 22102
      0.00411 [    19]: 21121
      0.00360 [    20]: 21202
ROOT   6:  E=   -1618.7865160442 Eh  0.409 eV   3299.2 cm**-1
      0.21110 [    21]: 21211
      0.18984 [    26]: 22111
      0.17639 [     1]: 02122
      0.16267 [     0]: 01222
      0.05487 [    29]: 22210
      0.04295 [    13]: 12220
      0.02866 [    25]: 22102
      0.02185 [    20]: 21202
      0.01551 [     7]: 11221
      0.01468 [    19]: 21121
      0.01396 [    14]: 20122
      0.01286 [    17]: 21022
      0.01197 [    10]: 12121
      0.00677 [    15]: 20212
      0.00450 [    23]: 22012
      0.00395 [    18]: 21112
      0.00353 [    22]: 21220
      0.00335 [     9]: 12112
      0.00306 [     8]: 12022
      0.00292 [    24]: 22021
      0.00272 [     2]: 02212
      0.00255 [     4]: 10222
ROOT   7:  E=   -1618.7845428896 Eh  0.463 eV   3732.3 cm**-1
      0.20972 [    12]: 12211
      0.12289 [    26]: 22111
      0.10498 [    21]: 21211
      0.08688 [     0]: 01222
      0.07483 [     1]: 02122
      0.06881 [    10]: 12121
      0.05567 [     3]: 02221
      0.04593 [     7]: 11221
      0.03845 [     6]: 11212
      0.03382 [    22]: 21220
      0.02868 [    27]: 22120
      0.02438 [     5]: 11122
      0.01945 [     9]: 12112
      0.01875 [    24]: 22021
      0.01608 [    16]: 20221
      0.01207 [    28]: 22201
      0.01113 [    20]: 21202
      0.00982 [    25]: 22102
      0.00491 [    18]: 21112
      0.00429 [    17]: 21022
      0.00362 [    14]: 20122
ROOT   8:  E=   -1618.7817351754 Eh  0.539 eV   4348.5 cm**-1
      0.37773 [    28]: 22201
      0.16130 [     3]: 02221
      0.15232 [    12]: 12211
      0.05547 [    18]: 21112
      0.03926 [     6]: 11212
      0.03664 [    10]: 12121
      0.02474 [     9]: 12112
      0.02230 [    26]: 22111
      0.02178 [     0]: 01222
      0.02057 [     1]: 02122
      0.02031 [     7]: 11221
      0.01867 [    21]: 21211
      0.01267 [    20]: 21202
      0.00766 [    16]: 20221
      0.00752 [    24]: 22021
      0.00687 [    25]: 22102
      0.00355 [     5]: 11122
      0.00272 [    29]: 22210
ROOT   9:  E=   -1618.7802565423 Eh  0.579 eV   4673.1 cm**-1
      0.25408 [     2]: 02212
      0.21377 [    29]: 22210
      0.09434 [    13]: 12220
      0.07089 [    27]: 22120
      0.05840 [    22]: 21220
      0.05286 [     9]: 12112
      0.03974 [     7]: 11221
      0.03653 [    19]: 21121
      0.03616 [     6]: 11212
      0.02810 [     1]: 02122
      0.02257 [    10]: 12121
      0.02240 [     0]: 01222
      0.02150 [    21]: 21211
      0.01504 [    26]: 22111
      0.01164 [     4]: 10222
      0.01060 [     8]: 12022
      0.00256 [     5]: 11122
ROOT  10:  E=   -1618.7784707535 Eh  0.628 eV   5065.0 cm**-1
      0.21416 [    21]: 21211
      0.14760 [    27]: 22120
      0.12163 [    26]: 22111
      0.09410 [    22]: 21220
      0.07915 [    25]: 22102
      0.05867 [     7]: 11221
      0.05374 [    10]: 12121
      0.04191 [     9]: 12112
      0.04154 [    20]: 21202
      0.03259 [     6]: 11212
      0.02848 [     8]: 12022
      0.02805 [     4]: 10222
      0.01349 [    12]: 12211
      0.01306 [    23]: 22012
      0.01252 [    15]: 20212
      0.00899 [    19]: 21121
ROOT  11:  E=   -1618.7784187449 Eh  0.629 eV   5076.4 cm**-1
      0.22677 [    26]: 22111
      0.14156 [    21]: 21211
      0.11653 [    22]: 21220
      0.08011 [    20]: 21202
      0.07203 [    10]: 12121
      0.07163 [     7]: 11221
      0.06464 [    27]: 22120
      0.05465 [     5]: 11122
      0.04176 [    25]: 22102
      0.03080 [     6]: 11212
      0.02487 [    18]: 21112
      0.02020 [     9]: 12112
      0.01950 [     2]: 02212
      0.00641 [     1]: 02122
      0.00476 [     0]: 01222
      0.00463 [    29]: 22210
      0.00453 [    16]: 20221
      0.00435 [    11]: 12202
      0.00416 [    24]: 22021
ROOT  12:  E=   -1618.7751494747 Eh  0.718 eV   5793.9 cm**-1
      0.38926 [    12]: 12211
      0.09899 [     6]: 11212
      0.09049 [    10]: 12121
      0.05439 [    22]: 21220
      0.05108 [     0]: 01222
      0.04157 [     9]: 12112
      0.04153 [    26]: 22111
      0.03645 [     7]: 11221
      0.03532 [    20]: 21202
      0.03147 [    27]: 22120
      0.03128 [     1]: 02122
      0.02726 [    28]: 22201
      0.02556 [    25]: 22102
      0.02444 [    21]: 21211
      0.00379 [    18]: 21112
      0.00365 [    17]: 21022
      0.00344 [     3]: 02221
      0.00254 [    13]: 12220
ROOT  13:  E=   -1618.7745777136 Eh  0.734 eV   5919.4 cm**-1
      0.26607 [    11]: 12202
      0.11765 [     9]: 12112
      0.10677 [     7]: 11221
      0.08601 [    13]: 12220
      0.05188 [     6]: 11212
      0.05040 [    25]: 22102
      0.04959 [    29]: 22210
      0.04624 [     1]: 02122
      0.04511 [    10]: 12121
      0.03645 [    21]: 21211
      0.03110 [    20]: 21202
      0.02761 [     0]: 01222
      0.02359 [    27]: 22120
      0.02266 [    26]: 22111
      0.01356 [    22]: 21220
      0.00633 [     4]: 10222
      0.00514 [     8]: 12022
      0.00351 [    19]: 21121
      0.00333 [    14]: 20122
      0.00253 [    12]: 12211
ROOT  14:  E=   -1618.7688568086 Eh  0.890 eV   7175.0 cm**-1
      0.15695 [     9]: 12112
      0.14509 [    13]: 12220
      0.13107 [     2]: 02212
      0.11380 [     7]: 11221
      0.09713 [     6]: 11212
      0.08850 [    11]: 12202
      0.05914 [    10]: 12121
      0.05832 [    29]: 22210
      0.03262 [    25]: 22102
      0.02770 [    20]: 21202
      0.01786 [    27]: 22120
      0.01403 [    22]: 21220
      0.01018 [    15]: 20212
      0.00901 [    23]: 22012
      0.00595 [    12]: 12211
      0.00458 [    14]: 20122
      0.00439 [    21]: 21211
      0.00412 [    26]: 22111
      0.00402 [     1]: 02122
      0.00390 [    19]: 21121
      0.00367 [    17]: 21022
      0.00316 [     0]: 01222
ROOT  15:  E=   -1618.7678827642 Eh  0.916 eV   7388.8 cm**-1
      0.23907 [    12]: 12211
      0.14704 [     6]: 11212
      0.12413 [     3]: 02221
      0.10527 [    10]: 12121
      0.08907 [     9]: 12112
      0.08408 [    28]: 22201
      0.05257 [     7]: 11221
      0.04439 [    20]: 21202
      0.03257 [    25]: 22102
      0.01429 [    24]: 22021
      0.01273 [    16]: 20221
      0.00751 [    26]: 22111
      0.00680 [    22]: 21220
      0.00646 [    27]: 22120
      0.00496 [     0]: 01222
      0.00426 [    21]: 21211
      0.00419 [    17]: 21022
      0.00387 [     1]: 02122
      0.00330 [    14]: 20122
      0.00302 [     5]: 11122
      0.00289 [    11]: 12202
ROOT  16:  E=   -1618.7576375513 Eh  1.195 eV   9637.3 cm**-1
      0.23719 [    26]: 22111
      0.19929 [    21]: 21211
      0.19500 [     0]: 01222
      0.16754 [     1]: 02122
      0.07261 [    10]: 12121
      0.05714 [     7]: 11221
      0.02086 [    12]: 12211
      0.01243 [    22]: 21220
      0.00696 [    28]: 22201
      0.00675 [    27]: 22120
      0.00647 [    19]: 21121
      0.00501 [     6]: 11212
      0.00313 [    15]: 20212
      0.00306 [    23]: 22012
ROOT  17:  E=   -1618.7574149775 Eh  1.201 eV   9686.2 cm**-1
      0.22720 [    21]: 21211
      0.19573 [    26]: 22111
      0.19382 [     1]: 02122
      0.16721 [     0]: 01222
      0.08285 [     7]: 11221
      0.06438 [    10]: 12121
      0.01846 [    11]: 12202
      0.00908 [    29]: 22210
      0.00735 [     9]: 12112
      0.00672 [    18]: 21112
      0.00536 [    13]: 12220
      0.00376 [    24]: 22021
      0.00329 [    16]: 20221
ROOT  18:  E=   -1618.7521076724 Eh  1.345 eV  10851.0 cm**-1
      0.23107 [     6]: 11212
      0.21207 [    10]: 12121
      0.14403 [     9]: 12112
      0.13736 [     7]: 11221
      0.09884 [    19]: 21121
      0.03943 [    15]: 20212
      0.03774 [    23]: 22012
      0.02612 [     0]: 01222
      0.01377 [    12]: 12211
      0.01167 [    26]: 22111
      0.01126 [     1]: 02122
      0.00939 [    18]: 21112
      0.00653 [    21]: 21211
      0.00569 [    24]: 22021
      0.00512 [    16]: 20221
      0.00423 [    20]: 21202
      0.00253 [     5]: 11122
ROOT  19:  E=   -1618.7520822685 Eh  1.346 eV  10856.6 cm**-1
      0.25145 [     9]: 12112
      0.19650 [     7]: 11221
      0.15570 [     6]: 11212
      0.12741 [    10]: 12121
      0.07720 [    18]: 21112
      0.05005 [    24]: 22021
      0.04899 [    16]: 20221
      0.02929 [     1]: 02122
      0.01324 [     0]: 01222
      0.01099 [    19]: 21121
      0.00788 [    11]: 12202
      0.00662 [    13]: 12220
      0.00557 [    23]: 22012
      0.00430 [    21]: 21211
      0.00407 [    27]: 22120
      0.00365 [    15]: 20212
      0.00269 [    26]: 22111
ROOT  20:  E=   -1618.7508182554 Eh  1.380 eV  11134.0 cm**-1
      0.23887 [    26]: 22111
      0.18219 [     5]: 11122
      0.12587 [    20]: 21202
      0.11618 [    22]: 21220
      0.10072 [    21]: 21211
      0.05402 [    25]: 22102
      0.04728 [    27]: 22120
      0.03160 [     6]: 11212
      0.02668 [    12]: 12211
      0.01831 [     3]: 02221
      0.01828 [     9]: 12112
      0.00730 [    16]: 20221
      0.00624 [    28]: 22201
      0.00612 [    10]: 12121
      0.00475 [    24]: 22021
      0.00409 [     7]: 11221
      0.00356 [    18]: 21112
      0.00332 [     0]: 01222
      0.00274 [     1]: 02122
ROOT  21:  E=   -1618.7386801505 Eh  1.711 eV  13798.0 cm**-1
      0.18200 [    24]: 22021
      0.17893 [    16]: 20221
      0.13975 [     3]: 02221
      0.12061 [     6]: 11212
      0.10444 [    10]: 12121
      0.09749 [    18]: 21112
      0.06546 [     9]: 12112
      0.05644 [     7]: 11221
      0.01284 [    12]: 12211
      0.00743 [     5]: 11122
      0.00720 [    22]: 21220
      0.00718 [     0]: 01222
      0.00544 [     1]: 02122
      0.00450 [    27]: 22120
      0.00253 [    26]: 22111
ROOT  22:  E=   -1618.7378315278 Eh  1.734 eV  13984.3 cm**-1
      0.17707 [    15]: 20212
      0.17313 [    23]: 22012
      0.13495 [     2]: 02212
      0.13111 [     9]: 12112
      0.11408 [     7]: 11221
      0.09450 [    19]: 21121
      0.06954 [     6]: 11212
      0.06047 [    10]: 12121
      0.01158 [    11]: 12202
      0.00722 [     1]: 02122
      0.00566 [     0]: 01222
      0.00418 [    25]: 22102
      0.00332 [    20]: 21202
      0.00298 [    29]: 22210
ROOT  23:  E=   -1618.7344112837 Eh  1.827 eV  14734.9 cm**-1
      0.25719 [     5]: 11122
      0.17859 [     4]: 10222
      0.17771 [     8]: 12022
      0.09817 [    18]: 21112
      0.05498 [    19]: 21121
      0.05186 [    23]: 22012
      0.05145 [    15]: 20212
      0.03176 [    24]: 22021
      0.03155 [    16]: 20221
      0.02924 [    21]: 21211
      0.01499 [    27]: 22120
      0.01459 [    25]: 22102
      0.00305 [     9]: 12112
      0.00305 [     7]: 11221
ROOT  24:  E=   -1618.7344112769 Eh  1.827 eV  14734.9 cm**-1
      0.35629 [     5]: 11122
      0.12874 [     8]: 12022
      0.12845 [     4]: 10222
      0.10331 [    18]: 21112
      0.06331 [    19]: 21121
      0.04931 [    23]: 22012
      0.04886 [    15]: 20212
      0.02930 [    26]: 22111
      0.02767 [    24]: 22021
      0.02731 [    16]: 20221
      0.01497 [    22]: 21220
      0.01456 [    20]: 21202
      0.00307 [     6]: 11212
      0.00303 [    10]: 12121
ROOT  25:  E=   -1618.7308605487 Eh  1.924 eV  15514.2 cm**-1
      0.25952 [     8]: 12022
      0.25892 [     4]: 10222
      0.13474 [    21]: 21211
      0.06872 [    27]: 22120
      0.06513 [    25]: 22102
      0.05623 [    26]: 22111
      0.04503 [    13]: 12220
      0.02918 [    11]: 12202
      0.02905 [    22]: 21220
      0.02658 [    20]: 21202
      0.00549 [     7]: 11221
      0.00522 [     9]: 12112
      0.00335 [    10]: 12121
      0.00328 [    15]: 20212
      0.00324 [     6]: 11212
      0.00320 [    23]: 22012
ROOT  26:  E=   -1618.7244789852 Eh  2.097 eV  16914.8 cm**-1
      0.38153 [    19]: 21121
      0.14229 [    15]: 20212
      0.14200 [    23]: 22012
      0.13922 [     8]: 12022
      0.13897 [     4]: 10222
      0.01904 [     5]: 11122
      0.00655 [    18]: 21112
      0.00626 [    16]: 20221
      0.00606 [    24]: 22021
      0.00270 [     6]: 11212
      0.00266 [    10]: 12121
ROOT  27:  E=   -1618.7244789832 Eh  2.097 eV  16914.8 cm**-1
      0.28429 [    18]: 21112
      0.27819 [     5]: 11122
      0.19092 [    16]: 20221
      0.19061 [    24]: 22021
      0.01233 [    19]: 21121
      0.00955 [     8]: 12022
      0.00949 [     4]: 10222
      0.00335 [    15]: 20212
      0.00320 [    23]: 22012
      0.00269 [     9]: 12112
      0.00266 [     7]: 11221
ROOT  28:  E=   -1618.6807884318 Eh  3.286 eV  26503.8 cm**-1
      0.28599 [    18]: 21112
      0.19727 [     5]: 11122
      0.12317 [    12]: 12211
      0.09267 [    22]: 21220
      0.07076 [     3]: 02221
      0.06442 [    27]: 22120
      0.02616 [    26]: 22111
      0.02435 [    17]: 21022
      0.02181 [    14]: 20122
      0.01641 [    25]: 22102
      0.01383 [    10]: 12121
      0.01230 [    21]: 21211
      0.01122 [     7]: 11221
      0.01097 [    20]: 21202
      0.00650 [    28]: 22201
      0.00417 [    16]: 20221
      0.00411 [     6]: 11212
      0.00407 [    24]: 22021
      0.00284 [    19]: 21121
ROOT  29:  E=   -1618.6793863641 Eh  3.324 eV  26811.5 cm**-1
      0.27045 [    19]: 21121
      0.09501 [    25]: 22102
      0.08698 [    13]: 12220
      0.08371 [    11]: 12202
      0.07933 [    20]: 21202
      0.07257 [    27]: 22120
      0.06657 [    22]: 21220
      0.06097 [    14]: 20122
      0.05340 [    17]: 21022
      0.05274 [     2]: 02212
      0.01272 [     7]: 11221
      0.01165 [    15]: 20212
      0.01136 [    23]: 22012
      0.00987 [    10]: 12121
      0.00552 [    12]: 12211
      0.00520 [    21]: 21211
      0.00433 [    26]: 22111
      0.00420 [     1]: 02122
      0.00352 [     0]: 01222
ROOT  30:  E=   -1618.6767935998 Eh  3.395 eV  27380.5 cm**-1
      0.22922 [     5]: 11122
      0.18265 [    12]: 12211
      0.14364 [    20]: 21202
      0.10813 [    25]: 22102
      0.07564 [    17]: 21022
      0.06511 [    14]: 20122
      0.03737 [    27]: 22120
      0.03154 [    22]: 21220
      0.02017 [    26]: 22111
      0.01445 [    18]: 21112
      0.01354 [     3]: 02221
      0.01309 [     6]: 11212
      0.01277 [     0]: 01222
      0.01082 [     9]: 12112
      0.01069 [     1]: 02122
      0.00974 [    21]: 21211
      0.00916 [    28]: 22201
ROOT  31:  E=   -1618.6748121274 Eh  3.449 eV  27815.4 cm**-1
      0.37993 [    19]: 21121
      0.12385 [     2]: 02212
      0.04902 [    13]: 12220
      0.04831 [    14]: 20122
      0.04801 [    27]: 22120
      0.04267 [    17]: 21022
      0.04202 [    25]: 22102
      0.03998 [    20]: 21202
      0.03991 [    22]: 21220
      0.03851 [     9]: 12112
      0.02610 [     6]: 11212
      0.02329 [    11]: 12202
      0.02151 [     7]: 11221
      0.01764 [    29]: 22210
      0.01112 [     1]: 02122
      0.01104 [    10]: 12121
      0.01016 [     0]: 01222
      0.00546 [    23]: 22012
      0.00516 [    15]: 20212
      0.00335 [    18]: 21112
ROOT  32:  E=   -1618.6723238165 Eh  3.516 eV  28361.5 cm**-1
      0.34914 [    18]: 21112
      0.28857 [     5]: 11122
      0.11071 [     3]: 02221
      0.06426 [    12]: 12211
      0.02859 [    22]: 21220
      0.02016 [     6]: 11212
      0.01862 [    27]: 22120
      0.01585 [    24]: 22021
      0.01571 [    16]: 20221
      0.01529 [    10]: 12121
      0.01331 [     9]: 12112
      0.01181 [    26]: 22111
      0.00937 [    17]: 21022
      0.00912 [    14]: 20122
      0.00836 [     7]: 11221
      0.00528 [    21]: 21211
      0.00411 [    28]: 22201
      0.00268 [     0]: 01222
      0.00258 [     1]: 02122
ROOT  33:  E=   -1618.6634185084 Eh  3.759 eV  30316.0 cm**-1
      0.34859 [    18]: 21112
      0.15314 [    16]: 20221
      0.15159 [    24]: 22021
      0.07846 [    10]: 12121
      0.07690 [     7]: 11221
      0.07036 [     6]: 11212
      0.06849 [     9]: 12112
      0.02139 [     5]: 11122
      0.01376 [    19]: 21121
      0.00829 [    23]: 22012
      0.00666 [    15]: 20212
ROOT  34:  E=   -1618.6634180557 Eh  3.759 eV  30316.1 cm**-1
      0.30472 [    19]: 21121
      0.17520 [    23]: 22012
      0.17339 [    15]: 20212
      0.07827 [     7]: 11221
      0.07659 [    10]: 12121
      0.07054 [     9]: 12112
      0.06878 [     6]: 11212
      0.01493 [    18]: 21112
      0.01079 [     4]: 10222
      0.01061 [     8]: 12022
      0.00786 [    16]: 20221
      0.00596 [    24]: 22021
ROOT  35:  E=   -1618.5882772883 Eh  5.803 eV  46807.6 cm**-1
      0.26556 [    11]: 12202
      0.25892 [    13]: 12220
      0.14796 [     4]: 10222
      0.14773 [     8]: 12022
      0.03983 [    21]: 21211
      0.02402 [     2]: 02212
      0.02396 [    25]: 22102
      0.01660 [    26]: 22111
      0.01630 [    27]: 22120
      0.01072 [    29]: 22210
      0.01054 [    23]: 22012
      0.01026 [    15]: 20212
      0.01019 [    20]: 21202
      0.00659 [    22]: 21220
      0.00288 [     9]: 12112
      0.00259 [     7]: 11221
ROOT  36:  E=   -1618.5778763895 Eh  6.086 eV  49090.4 cm**-1
      0.22225 [    16]: 20221
      0.21940 [    24]: 22021
      0.16576 [     3]: 02221
      0.14973 [    18]: 21112
      0.13412 [    28]: 22201
      0.02876 [     6]: 11212
      0.02837 [    10]: 12121
      0.01667 [     9]: 12112
      0.01632 [     7]: 11221
      0.00938 [     5]: 11122
ROOT  37:  E=   -1618.5769832652 Eh  6.111 eV  49286.4 cm**-1
      0.22314 [    23]: 22012
      0.22035 [    15]: 20212
      0.14182 [    19]: 21121
      0.13759 [     2]: 02212
      0.12350 [    29]: 22210
      0.02762 [     7]: 11221
      0.02758 [     9]: 12112
      0.01758 [     4]: 10222
      0.01750 [     8]: 12022
      0.01609 [     6]: 11212
      0.01584 [    10]: 12121
      0.01488 [    13]: 12220
      0.00831 [    11]: 12202
ROOT  38:  E=   -1618.5296864096 Eh  7.398 eV  59666.8 cm**-1
      0.66167 [    17]: 21022
      0.08115 [    14]: 20122
      0.06964 [    20]: 21202
      0.06857 [    22]: 21220
      0.03868 [     0]: 01222
      0.03809 [    26]: 22111
      0.01037 [    12]: 12211
      0.00861 [    27]: 22120
      0.00834 [    25]: 22102
      0.00476 [     1]: 02122
      0.00467 [    21]: 21211
ROOT  39:  E=   -1618.5296810786 Eh  7.398 eV  59668.0 cm**-1
      0.66184 [    14]: 20122
      0.08123 [    17]: 21022
      0.07087 [    25]: 22102
      0.06735 [    27]: 22120
      0.03853 [     1]: 02122
      0.03808 [    21]: 21211
      0.00889 [    20]: 21202
      0.00807 [    22]: 21220
      0.00575 [    13]: 12220
      0.00472 [     0]: 01222
      0.00468 [    26]: 22111
      0.00463 [    11]: 12202

                 <<<<<<<<<<<<<<<<<<INITIAL CI STATE CHECK>>>>>>>>>>>>>>>>>>

   E(CAS)= -1618.781541150 Eh DE=    0.000000e+00
   --- Energy gap subspaces: Ext-Act = 1.518   Act-Int = 0.164
   --- current l-shift: Up(Ext-Act) = 1.00   Dn(Act-Int) = 1.84
   N(occ)=  1.40000 1.40000 1.40000 1.40000 1.40000
   ||g|| =     1.196297e+02 Max(G)=   -1.076728e+02 Rot=285,0
   --- Option=FreezeIE: ||g|| =    119.627206694 
                              = 100.00% 
                        Damping (0.029) elements outside Int-Ext
   --- Orbital Update [   SuperCI]
   SUPERCI-ITER   0: DE=    -0.461395713 <r|r>=      0.063006801
   SUPERCI-ITER   1: DE=    -0.015485254 <r|r>=      1.254303657
   SUPERCI-ITER   2: DE=    -0.002936770 <r|r>=      0.103205440
   SUPERCI-ITER   3: DE=    -0.000455155 <r|r>=      0.002560401
   SUPERCI-ITER   4: DE=    -0.000100670 <r|r>=      0.000728895
   SUPERCI-ITER   5: DE=    -0.000019792 <r|r>=      0.000020757
   SUPERCI-ITER   6: DE=    -0.000005285 <r|r>=      0.000054327
[...]
      2       0.000000   0.000000   0.000000  -0.000000 -502.780984
      3       0.000000 502.780984   0.000000   0.000000  -0.000000
      4       0.000000   0.000000 502.780984   0.000000   0.000000
LF-SOC-Z integrals (cm-1)
                  0          1          2          3          4    
      0       0.000000  -0.000000  -0.000000  -0.000000  -0.000000
      1       0.000000   0.000000 -502.780984  -0.000000  -0.000000
      2       0.000000 502.780984   0.000000  -0.000000  -0.000000
      3       0.000000   0.000000   0.000000   0.000000 -1005.561969
      4       0.000000   0.000000   0.000000 1005.561969   0.000000

RMS error of nonzero matrix elements =   14.7 cm**-1


-----SOC-CONSTANTS-----
---All Values in cm-1---
ZETA_D = 502.78 
------------------------




---AILFT COMPLETED SUCCESFULLY!---

--------------
CASSCF TIMINGS
--------------

Total time                       ...       43.8 sec
Sum of individual times          ...       40.8 sec ( 93.0%)

Calculation of AO operators
   F(Core) operator              ...       14.2 sec ( 32.3%)
   G(Act) operator               ...       12.6 sec ( 28.7%)
   J(AO) operators               ...        0.0 sec (  0.0%)
Calculation of MO transformed quantities
   J(MO) operators               ...        3.7 sec (  8.4%)
   (pq|rs) integrals             ...        0.0 sec (  0.0%)
   AO->MO one electron integrals ...        0.2 sec (  0.4%)
Configuration interaction steps
   CI-setup phase                ...        0.1 sec (  0.2%)
   CI-solution phase             ...        1.1 sec (  2.4%)
   Generation of densities       ...        0.2 sec (  0.5%)
Orbital improvement steps
   Orbital gradient              ...        0.1 sec (  0.2%)
   O(1) converger                ...        0.5 sec (  1.1%)
Properties                       ...        5.1 sec ( 11.6%)
   SOC integral calculation      ...        3.0 sec (  6.8%)
   SSC RMEs (incl. integrals)    ...        0.0 sec (  0.0%)
   SOC RMEs                      ...        0.1 sec (  0.3%)

Maximum memory used throughout the entire CASSCF-calculation: 292.2 MB

-------------------------   --------------------
FINAL SINGLE POINT ENERGY     -1620.924541741859
-------------------------   --------------------


                            ***************************************
                            *     ORCA property calculations      *
                            ***************************************

                                    ---------------------
                                    Active property flags
                                    ---------------------
   (+) Dipole Moment


------------------------------------------------------------------------------
                       ORCA ELECTRIC PROPERTIES CALCULATION
------------------------------------------------------------------------------

Dipole Moment Calculation                       ... on
Quadrupole Moment Calculation                   ... off
Polarizability Calculation                      ... off
GBWName                                         ... rho.gbw
Electron density                                ... rho.scfp
The origin for moment calculation is the CENTER OF MASS  = (-0.477454,  0.552748  0.404818)

-------------
DIPOLE MOMENT
-------------
                                X             Y             Z
Electronic contribution:     -0.05107       0.09510       0.08254
Nuclear contribution   :      0.04930      -0.09759      -0.07976
                        -----------------------------------------
Total Dipole Moment    :     -0.00176      -0.00249       0.00278
                        -----------------------------------------
Magnitude (a.u.)       :      0.00413
Magnitude (Debye)      :      0.01049



--------------------
Rotational spectrum 
--------------------
 
Rotational constants in cm-1:     1.748549     0.043484     0.043131 
Rotational constants in MHz : 52420.179851  1303.608771  1293.037278 

 Dipole components along the rotational axes: 
x,y,z [a.u.] :     0.003355     0.001681    -0.001719 
x,y,z [Debye]:     0.008527     0.004273    -0.004369 

 
mel0002:rank21.orca_util_mpi: Failed to modify UD QP to INIT on mlx5_0: Operation not permitted
mel0002:rank22.orca_util_mpi: Failed to modify UD QP to INIT on mlx5_0: Operation not permitted
mel0002:rank21.orca_util_mpi: Failed to modify UD QP to INIT on mlx5_0: Operation not permitted
mel0002:rank22.orca_util_mpi: Failed to modify UD QP to INIT on mlx5_0: Operation not permitted
mel0002:rank30.orca_util_mpi: Failed to modify UD QP to INIT on mlx5_0: Operation not permitted
mel0002:rank21.orca_util_mpi: Failed to modify UD QP to INIT on mlx5_0: Operation not permitted
mel0002:rank22.orca_util_mpi: Failed to modify UD QP to INIT on mlx5_0: Operation not permitted
mel0002:rank30.orca_util_mpi: Failed to modify UD QP to INIT on mlx5_0: Operation not permitted
mel0002:rank30.orca_util_mpi: Failed to modify UD QP to INIT on mlx5_0: Operation not permitted
mel0002:rank2.orca_util_mpi: Failed to modify UD QP to INIT on mlx5_0: Operation not permitted
mel0002:rank2.orca_util_mpi: Failed to modify UD QP to INIT on mlx5_0: Operation not permitted
mel0002:rank2.orca_util_mpi: Failed to modify UD QP to INIT on mlx5_0: Operation not permitted
mel0002:rank4.orca_util_mpi: Failed to modify UD QP to INIT on mlx5_0: Operation not permitted
mel0002:rank31.orca_util_mpi: Failed to modify UD QP to INIT on mlx5_0: Operation not permitted
mel0002:rank23.orca_util_mpi: Failed to modify UD QP to INIT on mlx5_0: Operation not permitted
mel0002:rank25.orca_util_mpi: Failed to modify UD QP to INIT on mlx5_0: Operation not permitted
mel0002:rank0.orca_util_mpi: Failed to modify UD QP to INIT on mlx5_0: Operation not permitted
mel0002:rank5.orca_util_mpi: Failed to modify UD QP to INIT on mlx5_0: Operation not permitted
mel0002:rank32.orca_util_mpi: Failed to modify UD QP to INIT on mlx5_0: Operation not permitted
mel0002:rank4.orca_util_mpi: Failed to modify UD QP to INIT on mlx5_0: Operation not permitted
mel0002:rank13.orca_util_mpi: Failed to modify UD QP to INIT on mlx5_0: Operation not permitted
mel0002:rank17.orca_util_mpi: Failed to modify UD QP to INIT on mlx5_0: Operation not permitted
mel0002:rank31.orca_util_mpi: Failed to modify UD QP to INIT on mlx5_0: Operation not permitted
mel0002:rank10.orca_util_mpi: Failed to modify UD QP to INIT on mlx5_0: Operation not permitted
mel0002:rank5.orca_util_mpi: Failed to modify UD QP to INIT on mlx5_0: Operation not permitted
mel0002:rank8.orca_util_mpi: Failed to modify UD QP to INIT on mlx5_0: Operation not permitted
mel0002:rank0.orca_util_mpi: Failed to modify UD QP to INIT on mlx5_0: Operation not permitted
mel0002:rank34.orca_util_mpi: Failed to modify UD QP to INIT on mlx5_0: Operation not permitted
mel0002:rank13.orca_util_mpi: Failed to modify UD QP to INIT on mlx5_0: Operation not permitted
mel0002:rank24.orca_util_mpi: Failed to modify UD QP to INIT on mlx5_0: Operation not permitted
mel0002:rank32.orca_util_mpi: Failed to modify UD QP to INIT on mlx5_0: Operation not permitted
mel0002:rank23.orca_util_mpi: Failed to modify UD QP to INIT on mlx5_0: Operation not permitted
mel0002:rank33.orca_util_mpi: Failed to modify UD QP to INIT on mlx5_0: Operation not permitted
mel0002:rank31.orca_util_mpi: Failed to modify UD QP to INIT on mlx5_0: Operation not permitted
mel0002:rank4.orca_util_mpi: Failed to modify UD QP to INIT on mlx5_0: Operation not permitted
mel0002:rank5.orca_util_mpi: Failed to modify UD QP to INIT on mlx5_0: Operation not permitted
mel0002:rank25.orca_util_mpi: Failed to modify UD QP to INIT on mlx5_0: Operation not permitted
mel0002:rank0.orca_util_mpi: Failed to modify UD QP to INIT on mlx5_0: Operation not permitted
mel0002:rank17.orca_util_mpi: Failed to modify UD QP to INIT on mlx5_0: Operation not permitted
mel0002:rank10.orca_util_mpi: Failed to modify UD QP to INIT on mlx5_0: Operation not permitted
mel0002:rank13.orca_util_mpi: Failed to modify UD QP to INIT on mlx5_0: Operation not permitted
mel0002:rank20.orca_util_mpi: Failed to modify UD QP to INIT on mlx5_0: Operation not permitted
mel0002:rank8.orca_util_mpi: Failed to modify UD QP to INIT on mlx5_0: Operation not permitted
mel0002:rank32.orca_util_mpi: Failed to modify UD QP to INIT on mlx5_0: Operation not permitted
mel0002:rank23.orca_util_mpi: Failed to modify UD QP to INIT on mlx5_0: Operation not permitted
mel0002:rank16.orca_util_mpi: Failed to modify UD QP to INIT on mlx5_0: Operation not permitted
mel0002:rank34.orca_util_mpi: Failed to modify UD QP to INIT on mlx5_0: Operation not permitted
mel0002:rank11.orca_util_mpi: Failed to modify UD QP to INIT on mlx5_0: Operation not permitted
mel0002:rank19.orca_util_mpi: Failed to modify UD QP to INIT on mlx5_0: Operation not permitted
mel0002:rank21.orca_util_mpi: Failed to modify UD QP to INIT on mlx5_0: Operation not permitted
mel0002:rank22.orca_util_mpi: Failed to modify UD QP to INIT on mlx5_0: Operation not permitted
mel0002:rank30.orca_util_mpi: Failed to modify UD QP to INIT on mlx5_0: Operation not permitted
mel0002:rank6.orca_util_mpi: Failed to modify UD QP to INIT on mlx5_0: Operation not permitted
mel0002:rank25.orca_util_mpi: Failed to modify UD QP to INIT on mlx5_0: Operation not permitted
mel0002:rank15.orca_util_mpi: Failed to modify UD QP to INIT on mlx5_0: Operation not permitted
mel0002:rank29.orca_util_mpi: Failed to modify UD QP to INIT on mlx5_0: Operation not permitted
mel0002:rank24.orca_util_mpi: Failed to modify UD QP to INIT on mlx5_0: Operation not permitted
mel0002:rank17.orca_util_mpi: Failed to modify UD QP to INIT on mlx5_0: Operation not permitted
mel0002:rank38.orca_util_mpi: Failed to modify UD QP to INIT on mlx5_0: Operation not permitted
mel0002:rank9.orca_util_mpi: Failed to modify UD QP to INIT on mlx5_0: Operation not permitted
mel0002:rank3.orca_util_mpi: Failed to modify UD QP to INIT on mlx5_0: Operation not permitted
mel0002:rank8.orca_util_mpi: Failed to modify UD QP to INIT on mlx5_0: Operation not permitted
mel0002:rank26.orca_util_mpi: Failed to modify UD QP to INIT on mlx5_0: Operation not permitted
mel0002:rank33.orca_util_mpi: Failed to modify UD QP to INIT on mlx5_0: Operation not permitted
mel0002:rank18.orca_util_mpi: Failed to modify UD QP to INIT on mlx5_0: Operation not permitted
mel0002:rank28.orca_util_mpi: Failed to modify UD QP to INIT on mlx5_0: Operation not permitted
mel0002:rank34.orca_util_mpi: Failed to modify UD QP to INIT on mlx5_0: Operation not permitted
mel0002:rank1.orca_util_mpi: Failed to modify UD QP to INIT on mlx5_0: Operation not permitted
mel0002:rank20.orca_util_mpi: Failed to modify UD QP to INIT on mlx5_0: Operation not permitted
mel0002:rank27.orca_util_mpi: Failed to modify UD QP to INIT on mlx5_0: Operation not permitted
mel0002:rank37.orca_util_mpi: Failed to modify UD QP to INIT on mlx5_0: Operation not permitted
mel0002:rank39.orca_util_mpi: Failed to modify UD QP to INIT on mlx5_0: Operation not permitted
mel0002:rank7.orca_util_mpi: Failed to modify UD QP to INIT on mlx5_0: Operation not permitted
mel0002:rank10.orca_util_mpi: Failed to modify UD QP to INIT on mlx5_0: Operation not permitted
mel0002:rank16.orca_util_mpi: Failed to modify UD QP to INIT on mlx5_0: Operation not permitted
mel0002:rank35.orca_util_mpi: Failed to modify UD QP to INIT on mlx5_0: Operation not permitted
mel0002:rank12.orca_util_mpi: Failed to modify UD QP to INIT on mlx5_0: Operation not permitted
mel0002:rank24.orca_util_mpi: Failed to modify UD QP to INIT on mlx5_0: Operation not permitted
mel0002:rank14.orca_util_mpi: Failed to modify UD QP to INIT on mlx5_0: Operation not permitted
mel0002:rank11.orca_util_mpi: Failed to modify UD QP to INIT on mlx5_0: Operation not permitted
mel0002:rank19.orca_util_mpi: Failed to modify UD QP to INIT on mlx5_0: Operation not permitted
mel0002:rank36.orca_util_mpi: Failed to modify UD QP to INIT on mlx5_0: Operation not permitted
mel0002:rank33.orca_util_mpi: Failed to modify UD QP to INIT on mlx5_0: Operation not permitted
mel0002:rank15.orca_util_mpi: Failed to modify UD QP to INIT on mlx5_0: Operation not permitted
mel0002:rank20.orca_util_mpi: Failed to modify UD QP to INIT on mlx5_0: Operation not permitted
mel0002:rank29.orca_util_mpi: Failed to modify UD QP to INIT on mlx5_0: Operation not permitted
mel0002:rank6.orca_util_mpi: Failed to modify UD QP to INIT on mlx5_0: Operation not permitted
mel0002:rank38.orca_util_mpi: Failed to modify UD QP to INIT on mlx5_0: Operation not permitted
mel0002:rank3.orca_util_mpi: Failed to modify UD QP to INIT on mlx5_0: Operation not permitted
mel0002:rank16.orca_util_mpi: Failed to modify UD QP to INIT on mlx5_0: Operation not permitted
mel0002:rank26.orca_util_mpi: Failed to modify UD QP to INIT on mlx5_0: Operation not permitted
mel0002:rank9.orca_util_mpi: Failed to modify UD QP to INIT on mlx5_0: Operation not permitted
mel0002:rank18.orca_util_mpi: Failed to modify UD QP to INIT on mlx5_0: Operation not permitted
mel0002:rank28.orca_util_mpi: Failed to modify UD QP to INIT on mlx5_0: Operation not permitted
mel0002:rank37.orca_util_mpi: Failed to modify UD QP to INIT on mlx5_0: Operation not permitted
mel0002:rank1.orca_util_mpi: Failed to modify UD QP to INIT on mlx5_0: Operation not permitted
mel0002:rank27.orca_util_mpi: Failed to modify UD QP to INIT on mlx5_0: Operation not permitted
mel0002:rank19.orca_util_mpi: Failed to modify UD QP to INIT on mlx5_0: Operation not permitted
mel0002:rank7.orca_util_mpi: Failed to modify UD QP to INIT on mlx5_0: Operation not permitted
mel0002:rank39.orca_util_mpi: Failed to modify UD QP to INIT on mlx5_0: Operation not permitted
mel0002:rank15.orca_util_mpi: Failed to modify UD QP to INIT on mlx5_0: Operation not permitted
mel0002:rank35.orca_util_mpi: Failed to modify UD QP to INIT on mlx5_0: Operation not permitted
mel0002:rank12.orca_util_mpi: Failed to modify UD QP to INIT on mlx5_0: Operation not permitted
mel0002:rank29.orca_util_mpi: Failed to modify UD QP to INIT on mlx5_0: Operation not permitted
mel0002:rank6.orca_util_mpi: Failed to modify UD QP to INIT on mlx5_0: Operation not permitted
mel0002:rank3.orca_util_mpi: Failed to modify UD QP to INIT on mlx5_0: Operation not permitted
mel0002:rank38.orca_util_mpi: Failed to modify UD QP to INIT on mlx5_0: Operation not permitted
mel0002:rank14.orca_util_mpi: Failed to modify UD QP to INIT on mlx5_0: Operation not permitted
mel0002:rank9.orca_util_mpi: Failed to modify UD QP to INIT on mlx5_0: Operation not permitted
mel0002:rank18.orca_util_mpi: Failed to modify UD QP to INIT on mlx5_0: Operation not permitted
mel0002:rank36.orca_util_mpi: Failed to modify UD QP to INIT on mlx5_0: Operation not permitted
mel0002:rank28.orca_util_mpi: Failed to modify UD QP to INIT on mlx5_0: Operation not permitted
mel0002:rank37.orca_util_mpi: Failed to modify UD QP to INIT on mlx5_0: Operation not permitted
mel0002:rank1.orca_util_mpi: Failed to modify UD QP to INIT on mlx5_0: Operation not permitted
mel0002:rank11.orca_util_mpi: Failed to modify UD QP to INIT on mlx5_0: Operation not permitted
mel0002:rank27.orca_util_mpi: Failed to modify UD QP to INIT on mlx5_0: Operation not permitted
mel0002:rank39.orca_util_mpi: Failed to modify UD QP to INIT on mlx5_0: Operation not permitted
mel0002:rank35.orca_util_mpi: Failed to modify UD QP to INIT on mlx5_0: Operation not permitted
mel0002:rank12.orca_util_mpi: Failed to modify UD QP to INIT on mlx5_0: Operation not permitted
mel0002:rank26.orca_util_mpi: Failed to modify UD QP to INIT on mlx5_0: Operation not permitted
mel0002:rank14.orca_util_mpi: Failed to modify UD QP to INIT on mlx5_0: Operation not permitted
mel0002:rank36.orca_util_mpi: Failed to modify UD QP to INIT on mlx5_0: Operation not permitted
mel0002:rank7.orca_util_mpi: Failed to modify UD QP to INIT on mlx5_0: Operation not permitted
mel0002:rank2.orca_util_mpi: Failed to modify UD QP to INIT on mlx5_0: Operation not permitted
mel0002:rank31.orca_util_mpi: Failed to modify UD QP to INIT on mlx5_0: Operation not permitted
mel0002:rank4.orca_util_mpi: Failed to modify UD QP to INIT on mlx5_0: Operation not permitted
mel0002:rank0.orca_util_mpi: Failed to modify UD QP to INIT on mlx5_0: Operation not permitted
mel0002:rank23.orca_util_mpi: Failed to modify UD QP to INIT on mlx5_0: Operation not permitted
mel0002:rank5.orca_util_mpi: Failed to modify UD QP to INIT on mlx5_0: Operation not permitted
mel0002:rank13.orca_util_mpi: Failed to modify UD QP to INIT on mlx5_0: Operation not permitted
mel0002:rank32.orca_util_mpi: Failed to modify UD QP to INIT on mlx5_0: Operation not permitted
mel0002:rank8.orca_util_mpi: Failed to modify UD QP to INIT on mlx5_0: Operation not permitted
mel0002:rank25.orca_util_mpi: Failed to modify UD QP to INIT on mlx5_0: Operation not permitted
mel0002:rank10.orca_util_mpi: Failed to modify UD QP to INIT on mlx5_0: Operation not permitted
mel0002:rank34.orca_util_mpi: Failed to modify UD QP to INIT on mlx5_0: Operation not permitted
mel0002:rank17.orca_util_mpi: Failed to modify UD QP to INIT on mlx5_0: Operation not permitted
mel0002:rank24.orca_util_mpi: Failed to modify UD QP to INIT on mlx5_0: Operation not permitted
mel0002:rank33.orca_util_mpi: Failed to modify UD QP to INIT on mlx5_0: Operation not permitted
mel0002:rank16.orca_util_mpi: Failed to modify UD QP to INIT on mlx5_0: Operation not permitted
mel0002:rank20.orca_util_mpi: Failed to modify UD QP to INIT on mlx5_0: Operation not permitted
mel0002:rank19.orca_util_mpi: Failed to modify UD QP to INIT on mlx5_0: Operation not permitted
mel0002:rank6.orca_util_mpi: Failed to modify UD QP to INIT on mlx5_0: Operation not permitted
mel0002:rank29.orca_util_mpi: Failed to modify UD QP to INIT on mlx5_0: Operation not permitted
mel0002:rank3.orca_util_mpi: Failed to modify UD QP to INIT on mlx5_0: Operation not permitted
mel0002:rank15.orca_util_mpi: Failed to modify UD QP to INIT on mlx5_0: Operation not permitted
mel0002:rank9.orca_util_mpi: Failed to modify UD QP to INIT on mlx5_0: Operation not permitted
mel0002:rank18.orca_util_mpi: Failed to modify UD QP to INIT on mlx5_0: Operation not permitted
mel0002:rank11.orca_util_mpi: Failed to modify UD QP to INIT on mlx5_0: Operation not permitted
mel0002:rank38.orca_util_mpi: Failed to modify UD QP to INIT on mlx5_0: Operation not permitted
mel0002:rank37.orca_util_mpi: Failed to modify UD QP to INIT on mlx5_0: Operation not permitted
mel0002:rank1.orca_util_mpi: Failed to modify UD QP to INIT on mlx5_0: Operation not permitted
mel0002:rank28.orca_util_mpi: Failed to modify UD QP to INIT on mlx5_0: Operation not permitted
mel0002:rank12.orca_util_mpi: Failed to modify UD QP to INIT on mlx5_0: Operation not permitted
mel0002:rank26.orca_util_mpi: Failed to modify UD QP to INIT on mlx5_0: Operation not permitted
mel0002:rank7.orca_util_mpi: Failed to modify UD QP to INIT on mlx5_0: Operation not permitted
mel0002:rank36.orca_util_mpi: Failed to modify UD QP to INIT on mlx5_0: Operation not permitted
mel0002:rank27.orca_util_mpi: Failed to modify UD QP to INIT on mlx5_0: Operation not permitted
mel0002:rank35.orca_util_mpi: Failed to modify UD QP to INIT on mlx5_0: Operation not permitted
mel0002:rank14.orca_util_mpi: Failed to modify UD QP to INIT on mlx5_0: Operation not permitted
mel0002:rank39.orca_util_mpi: Failed to modify UD QP to INIT on mlx5_0: Operation not permitted

Timings for individual modules:

Sum of individual times         ...       74.261 sec (=   1.238 min)
GTO integral calculation        ...        8.906 sec (=   0.148 min)  12.0 %
Relativistic integrals          ...        5.725 sec (=   0.095 min)   7.7 %
SCF iterations                  ...        6.793 sec (=   0.113 min)   9.1 %
CASSCF iterations               ...       52.836 sec (=   0.881 min)  71.1 %
                             ****ORCA TERMINATED NORMALLY****
TOTAL RUN TIME: 0 days 0 hours 1 minutes 22 seconds 307 msec
