
                                 *****************
                                 * O   R   C   A *
                                 *****************

                                            #,                                       
                                            ###                                      
                                            ####                                     
                                            #####                                    
                                            ######                                   
                                           ########,                                 
                                     ,,################,,,,,                         
                               ,,#################################,,                 
                          ,,##########################################,,             
                       ,#########################################, ''#####,          
                    ,#############################################,,   '####,        
                  ,##################################################,,,,####,       
                ,###########''''           ''''###############################       
              ,#####''   ,,,,##########,,,,          '''####'''          '####       
            ,##' ,,,,###########################,,,                        '##       
           ' ,,###''''                  '''############,,,                           
         ,,##''                                '''############,,,,        ,,,,,,###''
      ,#''                                            '''#######################'''  
     '                                                          ''''####''''         
             ,#######,   #######,   ,#######,      ##                                
            ,#'     '#,  ##    ##  ,#'     '#,    #''#        ######   ,####,        
            ##       ##  ##   ,#'  ##            #'  '#       #        #'  '#        
            ##       ##  #######   ##           ,######,      #####,   #    #        
            '#,     ,#'  ##    ##  '#,     ,#' ,#      #,         ##   #,  ,#        
             '#######'   ##     ##  '#######'  #'      '#     #####' # '####'        



                  #######################################################
                  #                        -***-                        #
                  #          Department of theory and spectroscopy      #
                  #    Directorship and core code : Frank Neese         #
                  #        Max Planck Institute fuer Kohlenforschung    #
                  #                Kaiser Wilhelm Platz 1               #
                  #                 D-45470 Muelheim/Ruhr               #
                  #                      Germany                        #
                  #                                                     #
                  #                  All rights reserved                #
                  #                        -***-                        #
                  #######################################################


                         Program Version 5.0.4 -  RELEASE  -


 With contributions from (in alphabetic order):
   Daniel Aravena         : Magnetic Suceptibility
   Michael Atanasov       : Ab Initio Ligand Field Theory (pilot matlab implementation)
   Alexander A. Auer      : GIAO ZORA, VPT2 properties, NMR spectrum
   Ute Becker             : Parallelization
   Giovanni Bistoni       : ED, misc. LED, open-shell LED, HFLD
   Martin Brehm           : Molecular dynamics
   Dmytro Bykov           : SCF Hessian
   Vijay G. Chilkuri      : MRCI spin determinant printing, contributions to CSF-ICE
   Dipayan Datta          : RHF DLPNO-CCSD density
   Achintya Kumar Dutta   : EOM-CC, STEOM-CC
   Dmitry Ganyushin       : Spin-Orbit,Spin-Spin,Magnetic field MRCI
   Miquel Garcia          : C-PCM and meta-GGA Hessian, CC/C-PCM, Gaussian charge scheme
   Yang Guo               : DLPNO-NEVPT2, F12-NEVPT2, CIM, IAO-localization
   Andreas Hansen         : Spin unrestricted coupled pair/coupled cluster methods
   Benjamin Helmich-Paris : MC-RPA, TRAH-SCF, COSX integrals
   Lee Huntington         : MR-EOM, pCC
   Robert Izsak           : Overlap fitted RIJCOSX, COSX-SCS-MP3, EOM
   Marcus Kettner         : VPT2
   Christian Kollmar      : KDIIS, OOCD, Brueckner-CCSD(T), CCSD density, CASPT2, CASPT2-K
   Simone Kossmann        : Meta GGA functionals, TD-DFT gradient, OOMP2, MP2 Hessian
   Martin Krupicka        : Initial AUTO-CI
   Lucas Lang             : DCDCAS
   Marvin Lechner         : AUTO-CI (C++ implementation), FIC-MRCC
   Dagmar Lenk            : GEPOL surface, SMD
   Dimitrios Liakos       : Extrapolation schemes; Compound Job, initial MDCI parallelization
   Dimitrios Manganas     : Further ROCIS development; embedding schemes
   Dimitrios Pantazis     : SARC Basis sets
   Anastasios Papadopoulos: AUTO-CI, single reference methods and gradients
   Taras Petrenko         : DFT Hessian,TD-DFT gradient, ASA, ECA, R-Raman, ABS, FL, XAS/XES, NRVS
   Peter Pinski           : DLPNO-MP2, DLPNO-MP2 Gradient
   Christoph Reimann      : Effective Core Potentials
   Marius Retegan         : Local ZFS, SOC
   Christoph Riplinger    : Optimizer, TS searches, QM/MM, DLPNO-CCSD(T), (RO)-DLPNO pert. Triples
   Tobias Risthaus        : Range-separated hybrids, TD-DFT gradient, RPA, STAB
   Michael Roemelt        : Original ROCIS implementation
   Masaaki Saitow         : Open-shell DLPNO-CCSD energy and density
   Barbara Sandhoefer     : DKH picture change effects
   Avijit Sen             : IP-ROCIS
   Kantharuban Sivalingam : CASSCF convergence, NEVPT2, FIC-MRCI
   Bernardo de Souza      : ESD, SOC TD-DFT
   Georgi Stoychev        : AutoAux, RI-MP2 NMR, DLPNO-MP2 response
   Willem Van den Heuvel  : Paramagnetic NMR
   Boris Wezisla          : Elementary symmetry handling
   Frank Wennmohs         : Technical directorship


 We gratefully acknowledge several colleagues who have allowed us to
 interface, adapt or use parts of their codes:
   Stefan Grimme, W. Hujo, H. Kruse, P. Pracht,  : VdW corrections, initial TS optimization,
                  C. Bannwarth, S. Ehlert          DFT functionals, gCP, sTDA/sTD-DF
   Ed Valeev, F. Pavosevic, A. Kumar             : LibInt (2-el integral package), F12 methods
   Garnet Chan, S. Sharma, J. Yang, R. Olivares  : DMRG
   Ulf Ekstrom                                   : XCFun DFT Library
   Mihaly Kallay                                 : mrcc  (arbitrary order and MRCC methods)
   Jiri Pittner, Ondrej Demel                    : Mk-CCSD
   Frank Weinhold                                : gennbo (NPA and NBO analysis)
   Christopher J. Cramer and Donald G. Truhlar   : smd solvation model
   Lars Goerigk                                  : TD-DFT with DH, B97 family of functionals
   V. Asgeirsson, H. Jonsson                     : NEB implementation
   FAccTs GmbH                                   : IRC, NEB, NEB-TS, DLPNO-Multilevel, CI-OPT
                                                   MM, QMMM, 2- and 3-layer-ONIOM, Crystal-QMMM,
                                                   LR-CPCM, SF, NACMEs, symmetry and pop. for TD-DFT,
                                                   nearIR, NL-DFT gradient (VV10), updates on ESD,
                                                   ML-optimized integration grids
   S Lehtola, MJT Oliveira, MAL Marques          : LibXC Library
   Liviu Ungur et al                             : ANISO software


 Your calculation uses the libint2 library for the computation of 2-el integrals
 For citations please refer to: http://libint.valeyev.net

 Your ORCA version has been built with support for libXC version: 5.1.0
 For citations please refer to: https://tddft.org/programs/libxc/

 This ORCA versions uses:
   CBLAS   interface :  Fast vector & matrix operations
   LAPACKE interface :  Fast linear algebra routines
   SCALAPACK package :  Parallel linear algebra routines
   Shared memory     :  Shared parallel matrices
   BLAS/LAPACK       :  OpenBLAS 0.3.15  USE64BITINT DYNAMIC_ARCH NO_AFFINITY Zen SINGLE_THREADED
        Core in use  :  Zen
   Copyright (c) 2011-2014, The OpenBLAS Project




***************************************
The coordinates will be read from file: geo.xyz
***************************************


================================================================================

----- Orbital basis set information -----
Your calculation utilizes the basis: DKH-def2-TZVPP
   Exponents from def2-TZVPP [F. Weigend and R. Ahlrichs, Phys. Chem. Chem. Phys. 7, 3297 (2005)],
   recontracted for DKH2 by D. A. Pantazis.

----- AuxJ basis set information -----
Your calculation utilizes the AutoAux generation procedure.
  G. L. Stoychev, A. A. Auer, F. Neese, J. Chem. Theory Comput. 13, 554 (2017)

----- AuxC basis set information -----
Your calculation utilizes the AutoAux generation procedure.
  G. L. Stoychev, A. A. Auer, F. Neese, J. Chem. Theory Comput. 13, 554 (2017)

----- AuxJK basis set information -----
Your calculation utilizes the AutoAux generation procedure.
  G. L. Stoychev, A. A. Auer, F. Neese, J. Chem. Theory Comput. 13, 554 (2017)

================================================================================
                                        WARNINGS
                       Please study these warnings very carefully!
================================================================================


INFO   : the flag for use of the SHARK integral package has been found!

================================================================================
                                       INPUT FILE
================================================================================
NAME = rho.inp
|  1> !CASSCF  DKH DKH-def2-TZVPP  RIJCOSX NoSFitting VeryTightSCF autoaux moread SlowConv
|  2> %moinp "orb.gbw"
|  3> %pal
|  4> nprocs 40
|  5> end
|  6> %maxcore 4000
|  7> # swap
|  8> #%scf
|  9> # Rotate
| 10> #  { 51, 60 }
| 11> # end
| 12> #end
| 13> #
| 14> %rel
| 15>  picturechange 2
| 16> end
| 17> %casscf
| 18>  nel  7
| 19>  norb 5
| 20>  mult 4,2
| 21>  nroots 10,40
| 22>  maxiter 100
| 23>  ActOrbs dOrbs
| 24>  rel
| 25>   printlevel 3
| 26>   dosoc true
| 27>   gtensor true
| 28>   quad true
| 29>  end
| 30> end
| 31> * xyzfile 0 4 geo.xyz *
| 32> 
| 33>                          ****END OF INPUT****
================================================================================

                       ****************************
                       * Single Point Calculation *
                       ****************************

---------------------------------
CARTESIAN COORDINATES (ANGSTROEM)
---------------------------------
  Co     0.000001    0.000017   -0.000060
  N      1.788691   -0.008722   -0.002675
  C      2.986214   -0.017281   -0.005166
  Se     4.724102   -0.029559   -0.008742
  N     -1.788690    0.008724    0.002663
  C     -2.986214    0.017223    0.005357
  Se    -4.724103    0.029412    0.009234

----------------------------
CARTESIAN COORDINATES (A.U.)
----------------------------
  NO LB      ZA    FRAG     MASS         X           Y           Z
   0 Co   27.0000    0    58.930    0.000002    0.000032   -0.000113
   1 N     7.0000    0    14.007    3.380135   -0.016482   -0.005055
   2 C     6.0000    0    12.011    5.643126   -0.032657   -0.009763
   3 Se   34.0000    0    78.960    8.927259   -0.055858   -0.016520
   4 N     7.0000    0    14.007   -3.380134    0.016485    0.005032
   5 C     6.0000    0    12.011   -5.643126    0.032547    0.010123
   6 Se   34.0000    0    78.960   -8.927262    0.055581    0.017451

--------------------------------
INTERNAL COORDINATES (ANGSTROEM)
--------------------------------
 Co     0   0   0     0.000000000000     0.00000000     0.00000000
 N      1   0   0     1.788713016314     0.00000000     0.00000000
 C      2   1   0     1.197556174589   179.86564278     0.00000000
 Se     3   2   1     1.737935274681   179.99506360   180.25990956
 N      1   2   3     1.788713811872   179.99642811    88.85795534
 C      5   1   2     1.197556997944   179.86561189    88.34867388
 Se     6   5   1     1.737936952809   179.99506516   185.48602417

---------------------------
INTERNAL COORDINATES (A.U.)
---------------------------
 Co     0   0   0     0.000000000000     0.00000000     0.00000000
 N      1   0   0     3.380177733013     0.00000000     0.00000000
 C      2   1   0     2.263053199960   179.86564278     0.00000000
 Se     3   2   1     3.284221707627   179.99506360   180.25990956
 N      1   2   3     3.380179236401   179.99642811    88.85795534
 C      5   1   2     2.263054755875   179.86561189    88.34867388
 Se     6   5   1     3.284224878832   179.99506516   185.48602417

---------------------
BASIS SET INFORMATION
---------------------
There are 4 groups of distinct atoms

 Group   1 Type Co  : 17s12p7d2f1g contracted to 10s7p4d2f1g pattern {8111111111/6111111/4111/11/1}
 Group   2 Type N   : 11s6p2d1f contracted to 6s3p2d1f pattern {611111/411/11/1}
 Group   3 Type C   : 11s6p2d1f contracted to 6s3p2d1f pattern {611111/411/11/1}
 Group   4 Type Se  : 17s13p8d1f contracted to 10s8p4d1f pattern {8111111111/61111111/5111/1}

Atom   0Co   basis set group =>   1
Atom   1N    basis set group =>   2
Atom   2C    basis set group =>   3
Atom   3Se   basis set group =>   4
Atom   4N    basis set group =>   2
Atom   5C    basis set group =>   3
Atom   6Se   basis set group =>   4
---------------------------------
AUXILIARY/J BASIS SET INFORMATION
---------------------------------
There are 4 groups of distinct atoms

 Group   1 Type Co  : 22s18p17d17f16g6h3i contracted to 22s18p17d17f16g6h3i pattern {1111111111111111111111/111111111111111111/11111111111111111/11111111111111111/1111111111111111/111111/111}
 Group   2 Type N   : 16s13p12d7f3g contracted to 16s13p12d7f3g pattern {1111111111111111/1111111111111/111111111111/1111111/111}
 Group   3 Type C   : 16s13p12d7f3g contracted to 16s13p12d7f3g pattern {1111111111111111/1111111111111/111111111111/1111111/111}
 Group   4 Type Se  : 22s19p18d17f12g4h contracted to 22s19p18d17f12g4h pattern {1111111111111111111111/1111111111111111111/111111111111111111/11111111111111111/111111111111/1111}

Atom   0Co   basis set group =>   1
Atom   1N    basis set group =>   2
Atom   2C    basis set group =>   3
Atom   3Se   basis set group =>   4
Atom   4N    basis set group =>   2
Atom   5C    basis set group =>   3
Atom   6Se   basis set group =>   4
---------------------------------
AUXILIARY/C BASIS SET INFORMATION
---------------------------------
There are 4 groups of distinct atoms

 Group   1 Type Co  : 22s18p17d17f16g6h3i contracted to 22s18p17d17f16g6h3i pattern {1111111111111111111111/111111111111111111/11111111111111111/11111111111111111/1111111111111111/111111/111}
 Group   2 Type N   : 16s13p12d7f3g contracted to 16s13p12d7f3g pattern {1111111111111111/1111111111111/111111111111/1111111/111}
 Group   3 Type C   : 16s13p12d7f3g contracted to 16s13p12d7f3g pattern {1111111111111111/1111111111111/111111111111/1111111/111}
 Group   4 Type Se  : 22s19p18d17f12g4h contracted to 22s19p18d17f12g4h pattern {1111111111111111111111/1111111111111111111/111111111111111111/11111111111111111/111111111111/1111}

Atom   0Co   basis set group =>   1
Atom   1N    basis set group =>   2
Atom   2C    basis set group =>   3
Atom   3Se   basis set group =>   4
Atom   4N    basis set group =>   2
Atom   5C    basis set group =>   3
Atom   6Se   basis set group =>   4
----------------------------------
AUXILIARY/JK BASIS SET INFORMATION
----------------------------------
There are 4 groups of distinct atoms

 Group   1 Type Co  : 22s18p17d17f16g6h3i contracted to 22s18p17d17f16g6h3i pattern {1111111111111111111111/111111111111111111/11111111111111111/11111111111111111/1111111111111111/111111/111}
 Group   2 Type N   : 16s13p12d7f3g contracted to 16s13p12d7f3g pattern {1111111111111111/1111111111111/111111111111/1111111/111}
 Group   3 Type C   : 16s13p12d7f3g contracted to 16s13p12d7f3g pattern {1111111111111111/1111111111111/111111111111/1111111/111}
 Group   4 Type Se  : 22s19p18d17f12g4h contracted to 22s19p18d17f12g4h pattern {1111111111111111111111/1111111111111111111/111111111111111111/11111111111111111/111111111111/1111}

Atom   0Co   basis set group =>   1
Atom   1N    basis set group =>   2
Atom   2C    basis set group =>   3
Atom   3Se   basis set group =>   4
Atom   4N    basis set group =>   2
Atom   5C    basis set group =>   3
Atom   6Se   basis set group =>   4


           ************************************************************
           *        Program running with 40 parallel MPI-processes    *
           *              working on a common directory               *
           ************************************************************
------------------------------------------------------------------------------
                           ORCA GTO INTEGRAL CALCULATION
                           -- RI-GTO INTEGRALS CHOSEN --
------------------------------------------------------------------------------
------------------------------------------------------------------------------
                   ___                                                        
                  /   \      - P O W E R E D   B Y -                         
                 /     \                                                     
                 |  |  |   _    _      __       _____    __    __             
                 |  |  |  | |  | |    /  \     |  _  \  |  |  /  |          
                  \  \/   | |  | |   /    \    | | | |  |  | /  /          
                 / \  \   | |__| |  /  /\  \   | |_| |  |  |/  /          
                |  |  |   |  __  | /  /__\  \  |    /   |      \           
                |  |  |   | |  | | |   __   |  |    \   |  |\   \          
                \     /   | |  | | |  |  |  |  | |\  \  |  | \   \       
                 \___/    |_|  |_| |__|  |__|  |_| \__\ |__|  \__/        
                                                                              
                      - O R C A' S   B I G   F R I E N D -                    
                                      &                                       
                       - I N T E G R A L  F E E D E R -                       
                                                                              
 v1 FN, 2020, v2 2021                                                         
------------------------------------------------------------------------------


Reading SHARK input file rho.SHARKINP.tmp ... ok
----------------------
SHARK INTEGRAL PACKAGE
----------------------

Number of atoms                             ...      7
Number of basis functions                   ...    324
Number of shells                            ...    118
Maximum angular momentum                    ...      4
Integral batch strategy                     ... SHARK/LIBINT Hybrid
RI-J (if used) integral strategy            ... SPLIT-RIJ (Revised 2003 algorithm where possible)
Printlevel                                  ...      1
Contraction scheme used                     ... SEGMENTED contraction
Coulomb Range Separation                    ... NOT USED
Exchange Range Separation                   ... NOT USED
Finite Nucleus Model                        ... NOT USED
Auxiliary Coulomb fitting basis             ... AVAILABLE
   # of basis functions in Aux-J            ...   2173
   # of shells in Aux-J                     ...    487
   Maximum angular momentum in Aux-J        ...      6
Auxiliary J/K fitting basis                 ... AVAILABLE
   # of basis functions in Aux-JK           ...   2173
   # of shells in Aux-JK                    ...    487
   Maximum angular momentum in Aux-JK       ...      6
Auxiliary Correlation fitting basis         ... AVAILABLE
   # of basis functions in Aux-C            ...   2173
   # of shells in Aux-C                     ...    487
   Maximum angular momentum in Aux-C        ...      6
Auxiliary 'external' fitting basis          ... NOT available
Integral threshold                          ...     1.000000e-12
Primitive cut-off                           ...     1.000000e-14
Primitive pair pre-selection threshold      ...     1.000000e-14

Calculating pre-screening integrals         ... done (  0.1 sec) Dimension = 118
Organizing shell pair data                  ... done (  0.0 sec)
Shell pair information
Total number of shell pairs                 ...      7021
Shell pairs after pre-screening             ...      4745
Total number of primitive shell pairs       ...     19742
Primitive shell pairs kept                  ...     10176
          la=0 lb=0:    869 shell pairs
          la=1 lb=0:   1260 shell pairs
          la=1 lb=1:    470 shell pairs
          la=2 lb=0:    734 shell pairs
          la=2 lb=1:    518 shell pairs
          la=2 lb=2:    164 shell pairs
          la=3 lb=0:    286 shell pairs
          la=3 lb=1:    210 shell pairs
          la=3 lb=2:    122 shell pairs
          la=3 lb=3:     30 shell pairs
          la=4 lb=0:     32 shell pairs
          la=4 lb=1:     25 shell pairs
          la=4 lb=2:     16 shell pairs
          la=4 lb=3:      8 shell pairs
          la=4 lb=4:      1 shell pairs

Calculating one electron integrals          ... done (  0.0 sec)
Calculating RI/J V-Matrix + Cholesky decomp.... done (  0.4 sec)
Calculating RI/JK V-Matrix + Cholesky decomp... done (  0.3 sec)
Calculating RI/C V-Matrix + Cholesky decomp.... done (  0.3 sec)
Calculating Nuclear repulsion               ... done (  0.0 sec) ENN=    773.224015749441 Eh

SHARK setup successfully completed in   1.9 seconds

Maximum memory used throughout the entire GTOINT-calculation: 39.3 MB


           ************************************************************
           *        Program running with 40 parallel MPI-processes    *
           *              working on a common directory               *
           ************************************************************
------------------------------------------------------------------------------
                          ORCA RELATIVISTIC HAMILTONIAN
------------------------------------------------------------------------------

Relativistic Method            ... DKH
Order of DKH treatment         ...   2
Treatment of potential         ... V(e,N)
Eps parameter for DKH          ...   0.00000000010000
Nucleus model                  ... Point Nucleus
Speed of light used            ... 137.03598950000000


            ************************************************
            *        DOUGLAS-KROLL-HESS HAMILTONIAN        *
            *   Programmed by FN according to literature   *
            *        procedures. Special thanks to         *
            *       B.A. Hess, M. Reiher and A. Wolf       *
            *     University Erlangen-Nuernberg/Bonn       *
            ************************************************

Uncontracting the basis (first version)        ... done
Number of contracted basis functions           ...  324
Number of uncontracted basis functions         ...  501
Initializing the DKH file                      ... done
Calculating the relativistic integrals         ... done
Storing DKH matrices                           ... done
Code used for DKH trafo                        ... ORCA
Computing the DKH transformation               ... done
Storing the transformation variables           ... done
Transforming V and pVp to p**2 space           ... done
First transformation of V and pVp              ... done
Second transformation of Veff                  ... done
Adding kinetic energy                          ... done
Back transformation of Veff to r-space         ... done
Recovering DKH matrices                        ... done
Recontracting the H-matrix (first version)     ... done
Computing the DKH correction to the H-matrix   ... done
Reading the original H-matrix                  ... done
Adding DKH correction to the H-matrix          ... done
Storing the new modified H-matrix              ... done

Maximum memory used throughout the entire REL-calculation: 72.4 MB


           ************************************************************
           *        Program running with 40 parallel MPI-processes    *
           *              working on a common directory               *
           ************************************************************
-------------------------------------------------------------------------------
                                 ORCA SCF
-------------------------------------------------------------------------------

------------
SCF SETTINGS
------------
Hamiltonian:
 Ab initio Hamiltonian  Method          .... Hartree-Fock(GTOs)
 RI-approximation to the Coulomb term is turned on
   Number of AuxJ basis functions       .... 2173
   RIJ-COSX (HFX calculated with COS-X)).... on

Relativistic Settings:
 Scalar relativistic method             .... Douglas-Kroll-Hess
 Order of DKH procedure    Order        ....    2
 Mode of DKH-treatment                  .... V=V(e,N)
 Speed of light used       Velit        ....       137.035989
 Cutoff-constant           Eps          ....            1e-10 


General Settings:
 Integral files         IntName         .... rho
 Hartree-Fock type      HFTyp           .... CASSCF
 Total Charge           Charge          ....    0
 Multiplicity           Mult            ....    4
 Number of Electrons    NEL             ....  121
 Basis Dimension        Dim             ....  324
 Nuclear Repulsion      ENuc            ....    773.2240157494 Eh


Diagonalization of the overlap matrix:
Smallest eigenvalue                        ... 1.810e-04
Time for diagonalization                   ...    0.014 sec
Threshold for overlap eigenvalues          ... 1.000e-08
Number of eigenvalues below threshold      ... 0
Time for construction of square roots      ...    0.016 sec
Total time needed                          ...    0.035 sec

---------------------
INITIAL GUESS: MOREAD
---------------------
Guess MOs are being read from file: orb.gbw
Input Geometry matches current geometry (good)
Input basis set matches current basis set (good)
MOs were renormalized
Gram-Schmidt orthogonalization of all MOs with pivot on actives
                      ------------------
                      INITIAL GUESS DONE (   0.2 sec)
                      ------------------
--------------------
COSX GRID GENERATION
--------------------

GRIDX 1
-------
General Integration Accuracy     IntAcc      ... 3.816
Radial Grid Type                 RadialGrid  ... OptM3 with GC (2021)
Angular Grid (max. ang.)         AngularGrid ... 1 (Lebedev-50)
Angular grid pruning method      GridPruning ... 4 (adaptive)
Weight generation scheme         WeightScheme... Becke
Basis function cutoff            BFCut       ... 1.0000e-12
Integration weight cutoff        WCut        ... 1.0000e-14
Angular grids for H and He will be reduced by one unit
Partially contracted basis set               ... on
Rotationally invariant grid construction     ... off

Total number of grid points                  ...     6736
Total number of batches                      ...      108
Average number of points per batch           ...       62
Average number of grid points per atom       ...      962

GRIDX 2
-------
General Integration Accuracy     IntAcc      ... 4.020
Radial Grid Type                 RadialGrid  ... OptM3 with GC (2021)
Angular Grid (max. ang.)         AngularGrid ... 2 (Lebedev-110)
Angular grid pruning method      GridPruning ... 4 (adaptive)
Weight generation scheme         WeightScheme... Becke
Basis function cutoff            BFCut       ... 1.0000e-12
Integration weight cutoff        WCut        ... 1.0000e-14
Angular grids for H and He will be reduced by one unit
Partially contracted basis set               ... on
Rotationally invariant grid construction     ... off

Total number of grid points                  ...    15472
Total number of batches                      ...      244
Average number of points per batch           ...       63
Average number of grid points per atom       ...     2210

GRIDX 3
-------
General Integration Accuracy     IntAcc      ... 4.338
Radial Grid Type                 RadialGrid  ... OptM3 with GC (2021)
Angular Grid (max. ang.)         AngularGrid ... 3 (Lebedev-194)
Angular grid pruning method      GridPruning ... 4 (adaptive)
Weight generation scheme         WeightScheme... Becke
Basis function cutoff            BFCut       ... 1.0000e-12
Integration weight cutoff        WCut        ... 1.0000e-14
Angular grids for H and He will be reduced by one unit
Partially contracted basis set               ... on
Rotationally invariant grid construction     ... off

Total number of grid points                  ...    35054
Total number of batches                      ...      553
Average number of points per batch           ...       63
Average number of grid points per atom       ...     5008

Time for X-Grid setup             =    0.365 sec



 ... the calculation is a CASSCF calculation -I'm leaving here GOOD LUCK!!!



           ************************************************************
           *        Program running with 40 parallel MPI-processes    *
           *              working on a common directory               *
           ************************************************************
-------------------------------------------------------------------------------
                              ORCA-CASSCF
-------------------------------------------------------------------------------

Setting up the integral package       ... done
Setting up the integral package (RI)  ... done
Building the CAS space                ... done (10 configurations for Mult=4)
Building the CAS space                ... done (30 configurations for Mult=2)

SYSTEM-SPECIFIC SETTINGS:
Number of active electrons          ...    7
Number of active orbitals           ...    5
Total number of electrons           ...  121
Total number of orbitals            ...  324
Total number aux. functions         ... 2173

Determined orbital ranges:
   Internal       0 -   56 (  57 orbitals)
   Active        57 -   61 (   5 orbitals)
   External      62 -  323 ( 262 orbitals)
Number of rotation parameters      ...  16529

CI-STEP:
CI strategy                         ... General CI
Number of multiplicity blocks       ...    2
BLOCK  1 WEIGHT=   0.5000
  Multiplicity                      ...    4
  #(Configurations)                 ...   10
  #(CSFs)                           ...   10
  #(Roots)                          ...   10
    ROOT=0 WEIGHT=    0.050000
    ROOT=1 WEIGHT=    0.050000
    ROOT=2 WEIGHT=    0.050000
    ROOT=3 WEIGHT=    0.050000
    ROOT=4 WEIGHT=    0.050000
    ROOT=5 WEIGHT=    0.050000
    ROOT=6 WEIGHT=    0.050000
    ROOT=7 WEIGHT=    0.050000
    ROOT=8 WEIGHT=    0.050000
    ROOT=9 WEIGHT=    0.050000

BLOCK  2 WEIGHT=   0.5000
  Multiplicity                      ...    2
  #(Configurations)                 ...   30
  #(CSFs)                           ...   40
  #(Roots)                          ...   40
    ROOT=0 WEIGHT=    0.012500
    ROOT=1 WEIGHT=    0.012500
    ROOT=2 WEIGHT=    0.012500
    ROOT=3 WEIGHT=    0.012500
    ROOT=4 WEIGHT=    0.012500
    ROOT=5 WEIGHT=    0.012500
    ROOT=6 WEIGHT=    0.012500
    ROOT=7 WEIGHT=    0.012500
    ROOT=8 WEIGHT=    0.012500
    ROOT=9 WEIGHT=    0.012500
    ROOT=10 WEIGHT=    0.012500
    ROOT=11 WEIGHT=    0.012500
    ROOT=12 WEIGHT=    0.012500
    ROOT=13 WEIGHT=    0.012500
    ROOT=14 WEIGHT=    0.012500
    ROOT=15 WEIGHT=    0.012500
    ROOT=16 WEIGHT=    0.012500
    ROOT=17 WEIGHT=    0.012500
    ROOT=18 WEIGHT=    0.012500
    ROOT=19 WEIGHT=    0.012500
    ROOT=20 WEIGHT=    0.012500
    ROOT=21 WEIGHT=    0.012500
    ROOT=22 WEIGHT=    0.012500
    ROOT=23 WEIGHT=    0.012500
    ROOT=24 WEIGHT=    0.012500
    ROOT=25 WEIGHT=    0.012500
    ROOT=26 WEIGHT=    0.012500
    ROOT=27 WEIGHT=    0.012500
    ROOT=28 WEIGHT=    0.012500
    ROOT=29 WEIGHT=    0.012500
    ROOT=30 WEIGHT=    0.012500
    ROOT=31 WEIGHT=    0.012500
    ROOT=32 WEIGHT=    0.012500
    ROOT=33 WEIGHT=    0.012500
    ROOT=34 WEIGHT=    0.012500
    ROOT=35 WEIGHT=    0.012500
    ROOT=36 WEIGHT=    0.012500
    ROOT=37 WEIGHT=    0.012500
    ROOT=38 WEIGHT=    0.012500
    ROOT=39 WEIGHT=    0.012500

  PrintLevel                        ...    1
  N(GuessMat)                       ...       512
  MaxDim(CI)                        ...        10
  MaxIter(CI)                       ...        64
  Energy Tolerance CI               ...  1.00e-09
  Residual Tolerance CI             ...  1.00e-09
  Shift(CI)                         ...  1.00e-04

INTEGRAL-TRANSFORMATION-STEP:
  Algorithm                         ... RI-MO

ORBITAL-IMPROVEMENT-STEP:
  Algorithm                         ... SuperCI
  Default Parametrization           ... CAYLEY
  Act-Act rotations                 ... depends on algorithm used
  FreezeIE                          ... 95.00% of ||g||
  Until reaching FreezeIE rotations with active orbitals are damped. 

  Approx. Fock at                   ... 0.000000e+00 density convergence
  Level shift                       ... energy gap dependent. Minimum=1.000
  Switch step at gradient           ...  3.00e-02 
  Switch step at iteration          ...        50   
  Switch step to                    ... DIIS    

SCF-SETTINGS:
  Incremental                       ... off
  RIJCOSX approximation             ... on
  UseFinalGrid                      ... on
  RI-JK approximation               ... off
  AO integral handling              ... DIRECT
  Integral Neglect Thresh           ...  1.00e-12
  Primitive cutoff TCut             ...  1.00e-14
  Energy convergence tolerance      ...  1.00e-08
  Orbital gradient convergence      ...  1.00e-05
  Max. number of iterations         ...       100  


PROPERTIES-SETTINGS:
  Spin orbit coupling               ... true
  GTensor                           ... true

FINAL ORBITALS:
  Active   Orbitals                 ... d-orbitals 
  Internal Orbitals                 ... canonical 
  External Orbitals                 ... canonical 

------------------
CAS-SCF ITERATIONS
------------------


MACRO-ITERATION   1: 
   --- Canonicalize Internal Space
   --- Canonicalize External Space
   --- Inactive Energy E0 = -6409.58176014 Eh
CI-ITERATION   0: 
 -6432.495724168   0.000000000000 (    0.00)
 -6432.495724167   0.000000000000
 -6432.486991229   0.000000000000
 -6432.484474578   0.000000000000
 -6432.484474371   0.000000000000
 -6432.483397746   0.000000000000
 -6432.483395906   0.000000000000
 -6432.421156096   0.000000000000
 -6432.396685836   0.000000000000
 -6432.396681673   0.000000000000
   CI-PROBLEM SOLVED
   DENSITIES MADE
CI-ITERATION   0: 
 -6432.416288613   0.000000000000 (    0.01)
 -6432.416287553   0.000000000000
 -6432.413050649   0.000000000000
 -6432.413049948   0.000000000000
 -6432.411949620   0.000000000000
 -6432.411949619   0.000000000000
 -6432.409563943   0.000000000000
 -6432.399612761   0.000000000000
 -6432.398983220   0.000000000000
 -6432.398983220   0.000000000000
 -6432.397241953   0.000000000000
 -6432.397240903   0.000000000000
 -6432.387684967   0.000000000000
 -6432.387684869   0.000000000000
 -6432.386092284   0.000000000000
 -6432.386088686   0.000000000000
 -6432.380116090   0.000000000000
 -6432.380116089   0.000000000000
 -6432.379081805   0.000000000000
 -6432.379080910   0.000000000000
 -6432.372853248   0.000000000000
 -6432.370549743   0.000000000000
 -6432.370549743   0.000000000000
 -6432.364220366   0.000000000000
 -6432.364218892   0.000000000000
 -6432.360802926   0.000000000000
 -6432.356972899   0.000000000000
 -6432.356972899   0.000000000000
 -6432.305219864   0.000000000000
 -6432.302355762   0.000000000000
 -6432.302352776   0.000000000000
 -6432.298565768   0.000000000000
 -6432.298565245   0.000000000000
 -6432.291750778   0.000000000000
 -6432.291750776   0.000000000000
 -6432.208896128   0.000000000000
 -6432.199951276   0.000000000000
 -6432.199950284   0.000000000000
 -6432.169041308   0.000000000000
 -6432.169040111   0.000000000000
   CI-PROBLEM SOLVED
   DENSITIES MADE

                 <<<<<<<<<<<<<<<<<<INITIAL CI STATE CHECK>>>>>>>>>>>>>>>>>>

BLOCK  1 MULT= 4 NROOTS=10 
ROOT   0:  E=   -6432.4957241682 Eh
      0.44473 [     5]: 12211
      0.32580 [     7]: 21121
      0.06425 [     0]: 11122
      0.05709 [     6]: 21112
      0.03155 [     8]: 21211
      0.02374 [     4]: 12121
      0.02250 [     9]: 22111
      0.02174 [     2]: 11221
      0.00770 [     3]: 12112
ROOT   1:  E=   -6432.4957241675 Eh  0.000 eV      0.0 cm**-1
      0.40991 [     4]: 12121
      0.39002 [     8]: 21211
      0.08537 [     1]: 11212
      0.04377 [     3]: 12112
      0.02546 [     9]: 22111
      0.02136 [     7]: 21121
      0.01947 [     5]: 12211
      0.00386 [     2]: 11221
ROOT   2:  E=   -6432.4869912293 Eh  0.238 eV   1916.7 cm**-1
      0.27148 [     8]: 21211
      0.24735 [     4]: 12121
      0.09998 [     3]: 12112
      0.09255 [     9]: 22111
      0.09040 [     2]: 11221
      0.08478 [     5]: 12211
      0.06821 [     7]: 21121
      0.02486 [     6]: 21112
      0.01159 [     1]: 11212
      0.00879 [     0]: 11122
ROOT   3:  E=   -6432.4844745780 Eh  0.306 eV   2469.0 cm**-1
      0.30599 [     7]: 21121
      0.28957 [     5]: 12211
      0.24762 [     3]: 12112
      0.05259 [     1]: 11212
      0.03684 [     8]: 21211
      0.02373 [     6]: 21112
      0.01634 [     9]: 22111
      0.01517 [     2]: 11221
      0.00996 [     4]: 12121
ROOT   4:  E=   -6432.4844743710 Eh  0.306 eV   2469.0 cm**-1
      0.27141 [     2]: 11221
      0.24390 [     9]: 22111
      0.15004 [     6]: 21112
      0.09818 [     4]: 12121
      0.06619 [     8]: 21211
      0.06503 [     0]: 11122
      0.06265 [     1]: 11212
      0.02264 [     7]: 21121
      0.01311 [     3]: 12112
      0.00686 [     5]: 12211
ROOT   5:  E=   -6432.4833977461 Eh  0.335 eV   2705.3 cm**-1
      0.39364 [     1]: 11212
      0.21309 [     0]: 11122
      0.12836 [     6]: 21112
      0.11626 [     7]: 21121
      0.08182 [     2]: 11221
      0.05640 [     8]: 21211
      0.00591 [     3]: 12112
      0.00270 [     9]: 22111
ROOT   6:  E=   -6432.4833959061 Eh  0.335 eV   2705.7 cm**-1
      0.26937 [     0]: 11122
      0.21415 [     1]: 11212
      0.20808 [     3]: 12112
      0.09812 [     7]: 21121
      0.05893 [     6]: 21112
      0.04900 [     4]: 12121
      0.04248 [     8]: 21211
      0.03013 [     9]: 22111
      0.02689 [     2]: 11221
      0.00285 [     5]: 12211
ROOT   7:  E=   -6432.4211560960 Eh  2.029 eV  16365.8 cm**-1
      0.43547 [     2]: 11221
      0.36536 [     9]: 22111
      0.06651 [     3]: 12112
      0.04055 [     5]: 12211
      0.03984 [     1]: 11212
      0.02340 [     8]: 21211
      0.02047 [     7]: 21121
      0.00789 [     6]: 21112
ROOT   8:  E=   -6432.3966858355 Eh  2.695 eV  21736.4 cm**-1
      0.29684 [     3]: 12112
      0.13156 [     4]: 12121
      0.11314 [     0]: 11122
      0.10939 [     5]: 12211
      0.10184 [     9]: 22111
      0.09543 [     1]: 11212
      0.07458 [     8]: 21211
      0.05890 [     6]: 21112
      0.01572 [     7]: 21121
      0.00262 [     2]: 11221
ROOT   9:  E=   -6432.3966816734 Eh  2.695 eV  21737.3 cm**-1
      0.48997 [     6]: 21112
      0.26310 [     0]: 11122
      0.09922 [     9]: 22111
      0.05063 [     2]: 11221
      0.04385 [     1]: 11212
      0.03023 [     4]: 12121
      0.01049 [     3]: 12112
      0.00707 [     8]: 21211
      0.00544 [     7]: 21121

BLOCK  2 MULT= 2 NROOTS=40 
ROOT   0:  E=   -6432.4162886130 Eh
      0.14717 [    29]: 22210
      0.11628 [    12]: 12211
      0.11348 [    22]: 21220
      0.10090 [    21]: 21211
      0.09460 [    27]: 22120
      0.07515 [    10]: 12121
      0.03914 [    26]: 22111
      0.03439 [     3]: 02221
      0.03130 [     7]: 11221
      0.02642 [    28]: 22201
      0.02503 [     5]: 11122
      0.02256 [     8]: 12022
      0.02188 [    13]: 12220
      0.02077 [    11]: 12202
      0.01873 [     9]: 12112
      0.01753 [    18]: 21112
      0.01741 [     6]: 11212
      0.01433 [    17]: 21022
      0.01272 [    19]: 21121
      0.01185 [    15]: 20212
      0.01123 [    20]: 21202
      0.00693 [     0]: 01222
      0.00672 [    24]: 22021
      0.00565 [    14]: 20122
      0.00389 [     1]: 02122
ROOT   1:  E=   -6432.4162875529 Eh  0.000 eV      0.2 cm**-1
      0.21511 [    27]: 22120
      0.14980 [    12]: 12211
      0.10355 [    10]: 12121
      0.09838 [    26]: 22111
      0.08557 [    29]: 22210
      0.06779 [    13]: 12220
      0.04502 [    28]: 22201
      0.03961 [     9]: 12112
      0.02760 [    15]: 20212
      0.02548 [     8]: 12022
      0.02023 [    14]: 20122
      0.01859 [    21]: 21211
      0.01494 [    16]: 20221
      0.01268 [    20]: 21202
      0.01240 [     0]: 01222
      0.01115 [     5]: 11122
      0.01084 [    19]: 21121
      0.00821 [     3]: 02221
      0.00806 [     2]: 02212
      0.00697 [     1]: 02122
      0.00505 [     4]: 10222
      0.00407 [     7]: 11221
      0.00378 [    18]: 21112
ROOT   2:  E=   -6432.4130506492 Eh  0.088 eV    710.7 cm**-1
      0.16486 [    21]: 21211
      0.12069 [    13]: 12220
      0.08698 [    10]: 12121
      0.08330 [    27]: 22120
      0.07143 [     7]: 11221
      0.07080 [     9]: 12112
      0.05725 [     5]: 11122
      0.04504 [    26]: 22111
      0.03595 [    29]: 22210
      0.03236 [     0]: 01222
      0.02737 [    11]: 12202
      0.02660 [    15]: 20212
      0.02321 [     2]: 02212
      0.02020 [    25]: 22102
      0.01953 [    18]: 21112
      0.01603 [     3]: 02221
      0.01450 [    12]: 12211
      0.01376 [    28]: 22201
      0.01138 [    22]: 21220
      0.01089 [     1]: 02122
      0.00864 [     6]: 11212
      0.00778 [    20]: 21202
      0.00771 [    23]: 22012
      0.00582 [     4]: 10222
      0.00572 [     8]: 12022
      0.00450 [    24]: 22021
      0.00384 [    14]: 20122
      0.00302 [    16]: 20221
ROOT   3:  E=   -6432.4130499482 Eh  0.088 eV    710.8 cm**-1
      0.20877 [    22]: 21220
      0.11669 [     2]: 02212
      0.11230 [    19]: 21121
      0.05439 [    11]: 12202
      0.05084 [    12]: 12211
      0.04744 [     6]: 11212
      0.04136 [    17]: 21022
      0.04026 [     5]: 11122
      0.03653 [    18]: 21112
      0.03485 [    16]: 20221
      0.03416 [    24]: 22021
      0.03204 [    28]: 22201
      0.03181 [    26]: 22111
      0.02589 [    27]: 22120
      0.02399 [    10]: 12121
      0.02389 [     3]: 02221
      0.02044 [    23]: 22012
      0.02011 [    29]: 22210
      0.01144 [     4]: 10222
      0.00992 [    20]: 21202
      0.00854 [     9]: 12112
      0.00639 [    13]: 12220
      0.00286 [     0]: 01222
ROOT   4:  E=   -6432.4119496202 Eh  0.118 eV    952.3 cm**-1
      0.16902 [    21]: 21211
      0.13640 [    10]: 12121
      0.10735 [    19]: 21121
      0.08069 [    27]: 22120
      0.05827 [    12]: 12211
      0.05528 [     9]: 12112
      0.05488 [    11]: 12202
      0.05031 [     5]: 11122
      0.04725 [    20]: 21202
      0.04293 [     7]: 11221
      0.04222 [     1]: 02122
      0.03594 [     6]: 11212
      0.02583 [    22]: 21220
      0.01416 [    29]: 22210
      0.01139 [     8]: 12022
      0.01117 [    13]: 12220
      0.01044 [     2]: 02212
      0.00977 [    14]: 20122
      0.00939 [    23]: 22012
      0.00662 [    28]: 22201
      0.00645 [    15]: 20212
      0.00622 [    24]: 22021
      0.00281 [    18]: 21112
ROOT   5:  E=   -6432.4119496188 Eh  0.118 eV    952.3 cm**-1
      0.21407 [    19]: 21121
      0.09607 [    10]: 12121
      0.09045 [    21]: 21211
      0.09022 [    12]: 12211
      0.07146 [    18]: 21112
      0.06956 [     9]: 12112
      0.05634 [     6]: 11212
      0.05535 [     2]: 02212
      0.05209 [    29]: 22210
      0.04569 [    13]: 12220
      0.02679 [    22]: 21220
      0.02324 [    26]: 22111
      0.02220 [    11]: 12202
      0.01552 [     5]: 11122
      0.01542 [     1]: 02122
      0.00975 [     3]: 02221
      0.00778 [    20]: 21202
      0.00764 [    17]: 21022
      0.00686 [    27]: 22120
      0.00505 [     4]: 10222
      0.00406 [    14]: 20122
      0.00401 [    23]: 22012
      0.00319 [    15]: 20212
      0.00261 [    28]: 22201
ROOT   6:  E=   -6432.4095639425 Eh  0.183 eV   1475.9 cm**-1
      0.16070 [    12]: 12211
      0.14784 [     6]: 11212
      0.13166 [    19]: 21121
      0.09461 [     9]: 12112
      0.05866 [    14]: 20122
      0.05529 [    16]: 20221
      0.04224 [    21]: 21211
      0.03800 [     7]: 11221
      0.03582 [    24]: 22021
      0.03328 [    13]: 12220
      0.03174 [    26]: 22111
      0.02901 [     3]: 02221
      0.02491 [     0]: 01222
      0.02444 [    18]: 21112
      0.01291 [     1]: 02122
      0.01208 [    10]: 12121
      0.01185 [     8]: 12022
      0.00891 [    17]: 21022
      0.00836 [     5]: 11122
      0.00802 [    29]: 22210
      0.00743 [    28]: 22201
      0.00482 [    11]: 12202
      0.00465 [    25]: 22102
      0.00461 [    27]: 22120
ROOT   7:  E=   -6432.3996127606 Eh  0.454 eV   3659.9 cm**-1
      0.16279 [    22]: 21220
      0.13458 [    10]: 12121
      0.13019 [    21]: 21211
      0.12882 [     7]: 11221
      0.05043 [     6]: 11212
      0.04391 [     0]: 01222
      0.03921 [    20]: 21202
      0.03889 [     2]: 02212
      0.03410 [     5]: 11122
      0.02965 [    11]: 12202
      0.02613 [    13]: 12220
      0.02610 [    18]: 21112
      0.02606 [    27]: 22120
      0.01996 [     9]: 12112
      0.01945 [     1]: 02122
      0.01890 [    26]: 22111
      0.01770 [    12]: 12211
      0.01602 [    19]: 21121
      0.01070 [     3]: 02221
      0.00731 [    15]: 20212
      0.00585 [    29]: 22210
      0.00398 [     4]: 10222
      0.00342 [    28]: 22201
      0.00275 [     8]: 12022
ROOT   8:  E=   -6432.3989832198 Eh  0.471 eV   3798.1 cm**-1
      0.18161 [     5]: 11122
      0.08790 [    15]: 20212
      0.08373 [    18]: 21112
      0.08292 [    19]: 21121
      0.06648 [     2]: 02212
      0.06192 [     9]: 12112
      0.05786 [    26]: 22111
      0.04417 [    12]: 12211
      0.03802 [    16]: 20221
      0.03772 [    10]: 12121
      0.02630 [    21]: 21211
      0.02566 [    24]: 22021
      0.02525 [     1]: 02122
      0.02412 [    11]: 12202
      0.02326 [     6]: 11212
      0.02305 [    20]: 21202
      0.01853 [     8]: 12022
      0.01745 [    25]: 22102
      0.01721 [     3]: 02221
      0.00945 [     7]: 11221
      0.00930 [    28]: 22201
      0.00918 [     4]: 10222
      0.00916 [     0]: 01222
      0.00837 [    29]: 22210
      0.00588 [    13]: 12220
      0.00278 [    23]: 22012
ROOT   9:  E=   -6432.3989832196 Eh  0.471 eV   3798.1 cm**-1
      0.13587 [     6]: 11212
      0.11494 [    14]: 20122
      0.08478 [     1]: 02122
      0.07612 [    21]: 21211
      0.05509 [    10]: 12121
      0.05455 [     7]: 11221
      0.05322 [    19]: 21121
      0.04839 [    20]: 21202
      0.04710 [    11]: 12202
      0.04519 [     9]: 12112
      0.03812 [    17]: 21022
      0.03693 [    24]: 22021
      0.03000 [    26]: 22111
      0.02900 [     2]: 02212
      0.02191 [    18]: 21112
      0.01932 [    12]: 12211
      0.01904 [    28]: 22201
      0.01799 [    23]: 22012
      0.01465 [     8]: 12022
      0.01367 [     5]: 11122
      0.01186 [     4]: 10222
      0.00988 [    27]: 22120
      0.00924 [     0]: 01222
      0.00511 [    22]: 21220
      0.00425 [     3]: 02221
      0.00265 [    25]: 22102
ROOT  10:  E=   -6432.3972419525 Eh  0.518 eV   4180.3 cm**-1
      0.19611 [    12]: 12211
      0.11621 [    19]: 21121
      0.11216 [     7]: 11221
      0.09948 [    21]: 21211
      0.09054 [    22]: 21220
      0.05320 [    16]: 20221
      0.04095 [    10]: 12121
      0.03918 [    28]: 22201
      0.03802 [     1]: 02122
      0.03379 [    24]: 22021
      0.02874 [     3]: 02221
      0.02433 [     9]: 12112
      0.02406 [    27]: 22120
      0.02097 [     6]: 11212
      0.01940 [    25]: 22102
      0.01037 [    29]: 22210
      0.00866 [     5]: 11122
      0.00795 [    23]: 22012
      0.00631 [     2]: 02212
      0.00629 [     4]: 10222
      0.00528 [    26]: 22111
      0.00423 [    18]: 21112
      0.00350 [     8]: 12022
      0.00299 [    15]: 20212
      0.00299 [     0]: 01222
      0.00273 [    20]: 21202
ROOT  11:  E=   -6432.3972409025 Eh  0.518 eV   4180.5 cm**-1
      0.20651 [    10]: 12121
      0.12859 [    21]: 21211
      0.10901 [    12]: 12211
      0.10743 [    13]: 12220
      0.06580 [    15]: 20212
      0.06384 [    29]: 22210
      0.06307 [     5]: 11122
      0.06290 [    26]: 22111
      0.05138 [     7]: 11221
      0.02908 [     4]: 10222
      0.01747 [    25]: 22102
      0.01575 [    14]: 20122
      0.01459 [     3]: 02221
      0.01218 [     6]: 11212
      0.01026 [    23]: 22012
      0.00713 [    11]: 12202
      0.00586 [    20]: 21202
      0.00571 [     0]: 01222
      0.00550 [    22]: 21220
      0.00510 [     8]: 12022
      0.00357 [    18]: 21112
      0.00336 [    17]: 21022
ROOT  12:  E=   -6432.3876849673 Eh  0.778 eV   6277.8 cm**-1
      0.13349 [     7]: 11221
      0.08685 [    12]: 12211
      0.07837 [    19]: 21121
      0.07438 [     3]: 02221
      0.06718 [    21]: 21211
      0.06444 [    18]: 21112
      0.06342 [    16]: 20221
      0.05615 [     9]: 12112
      0.05171 [     4]: 10222
      0.03768 [     8]: 12022
      0.03689 [    26]: 22111
      0.03658 [     6]: 11212
      0.03649 [    11]: 12202
      0.02686 [    14]: 20122
      0.02426 [    13]: 12220
      0.02367 [     0]: 01222
      0.02007 [    20]: 21202
      0.01560 [    27]: 22120
      0.01483 [    10]: 12121
      0.01362 [    24]: 22021
      0.01171 [     2]: 02212
      0.01092 [    22]: 21220
      0.00587 [    28]: 22201
      0.00273 [     5]: 11122
ROOT  13:  E=   -6432.3876848687 Eh  0.778 eV   6277.8 cm**-1
      0.14953 [     7]: 11221
      0.10535 [    16]: 20221
      0.08552 [    18]: 21112
      0.06796 [    10]: 12121
      0.05886 [    12]: 12211
      0.05876 [     9]: 12112
      0.04561 [    26]: 22111
      0.04518 [     3]: 02221
      0.04328 [     0]: 01222
      0.04140 [    29]: 22210
      0.03891 [     2]: 02212
      0.03863 [     5]: 11122
      0.03105 [    20]: 21202
      0.02984 [    21]: 21211
      0.02225 [     6]: 11212
      0.02137 [    22]: 21220
      0.02093 [     4]: 10222
      0.01930 [    17]: 21022
      0.01575 [    28]: 22201
      0.01283 [    19]: 21121
      0.01229 [    14]: 20122
      0.01163 [    13]: 12220
      0.00996 [     8]: 12022
      0.00561 [    11]: 12202
      0.00420 [    23]: 22012
ROOT  14:  E=   -6432.3860922836 Eh  0.822 eV   6627.3 cm**-1
      0.21687 [     6]: 11212
      0.09475 [     7]: 11221
      0.09375 [     3]: 02221
      0.07540 [     0]: 01222
      0.06145 [    28]: 22201
      0.04473 [     1]: 02122
      0.03921 [     9]: 12112
      0.03557 [    21]: 21211
      0.03523 [    19]: 21121
      0.03216 [    24]: 22021
      0.02621 [    29]: 22210
      0.02465 [    16]: 20221
      0.02385 [    17]: 21022
      0.02253 [     8]: 12022
      0.02233 [    15]: 20212
      0.02128 [    10]: 12121
      0.02063 [     5]: 11122
      0.02016 [    22]: 21220
      0.01717 [    12]: 12211
      0.01496 [    13]: 12220
      0.01237 [    18]: 21112
      0.00960 [    14]: 20122
      0.00839 [    27]: 22120
      0.00786 [    26]: 22111
      0.00573 [    20]: 21202
      0.00392 [     2]: 02212
      0.00358 [     4]: 10222
      0.00357 [    11]: 12202
ROOT  15:  E=   -6432.3860886864 Eh  0.822 eV   6628.1 cm**-1
      0.17082 [     6]: 11212
      0.12081 [    19]: 21121
      0.12009 [     5]: 11122
      0.11775 [    16]: 20221
      0.08032 [     4]: 10222
      0.05537 [     9]: 12112
      0.05105 [    10]: 12121
      0.03943 [    15]: 20212
      0.03339 [    20]: 21202
      0.03191 [     1]: 02122
      0.03159 [     7]: 11221
      0.02796 [    12]: 12211
      0.02510 [    21]: 21211
      0.01848 [    26]: 22111
      0.01544 [    18]: 21112
      0.01391 [     0]: 01222
      0.01384 [    27]: 22120
      0.01341 [    28]: 22201
      0.01095 [    14]: 20122
      0.00297 [    17]: 21022
      0.00292 [    23]: 22012
ROOT  16:  E=   -6432.3801160899 Eh  0.984 eV   7939.0 cm**-1
      0.13926 [    26]: 22111
      0.13129 [    16]: 20221
      0.07435 [     2]: 02212
      0.07315 [     3]: 02221
      0.06207 [    25]: 22102
      0.05889 [    10]: 12121
      0.04905 [    21]: 21211
      0.04643 [     9]: 12112
      0.04365 [    24]: 22021
      0.04335 [    27]: 22120
      0.04193 [    18]: 21112
      0.03997 [     5]: 11122
      0.03077 [    12]: 12211
      0.02967 [     7]: 11221
      0.01826 [     4]: 10222
      0.01674 [    11]: 12202
      0.01610 [    19]: 21121
      0.01369 [    28]: 22201
      0.01208 [    17]: 21022
      0.00926 [    15]: 20212
      0.00895 [     6]: 11212
      0.00863 [    29]: 22210
      0.00704 [    23]: 22012
      0.00702 [    14]: 20122
      0.00647 [    13]: 12220
      0.00553 [     8]: 12022
      0.00273 [     0]: 01222
ROOT  17:  E=   -6432.3801160891 Eh  0.984 eV   7939.0 cm**-1
      0.18589 [     7]: 11221
      0.13537 [    19]: 21121
      0.08705 [    28]: 22201
      0.05877 [    23]: 22012
      0.05842 [     6]: 11212
      0.05055 [    11]: 12202
      0.04455 [    26]: 22111
      0.04322 [    24]: 22021
      0.04177 [     9]: 12112
      0.03411 [    29]: 22210
      0.02990 [    17]: 21022
      0.02828 [     0]: 01222
      0.02739 [     1]: 02122
      0.02510 [     3]: 02221
      0.02496 [    10]: 12121
      0.01603 [    12]: 12211
      0.01483 [    21]: 21211
      0.01452 [    20]: 21202
      0.01446 [    18]: 21112
      0.01341 [    22]: 21220
      0.00931 [    27]: 22120
      0.00909 [     5]: 11122
      0.00857 [     8]: 12022
      0.00573 [    25]: 22102
      0.00508 [    16]: 20221
      0.00505 [     4]: 10222
      0.00471 [    15]: 20212
      0.00370 [    13]: 12220
ROOT  18:  E=   -6432.3790818052 Eh  1.012 eV   8166.0 cm**-1
      0.10231 [    15]: 20212
      0.08350 [     4]: 10222
      0.06597 [    11]: 12202
      0.06088 [     6]: 11212
      0.06050 [     7]: 11221
      0.06036 [    27]: 22120
      0.05784 [     5]: 11122
      0.05488 [    13]: 12220
      0.04804 [    12]: 12211
      0.04571 [     1]: 02122
      0.04086 [    19]: 21121
      0.03840 [    10]: 12121
      0.03165 [    18]: 21112
      0.03087 [    14]: 20122
      0.02959 [     9]: 12112
      0.02894 [     8]: 12022
      0.02817 [    20]: 21202
      0.02497 [    24]: 22021
      0.02340 [    21]: 21211
      0.02227 [    26]: 22111
      0.01564 [     0]: 01222
      0.01297 [    16]: 20221
      0.01216 [    29]: 22210
      0.01025 [     2]: 02212
      0.00551 [    28]: 22201
      0.00309 [    23]: 22012
ROOT  19:  E=   -6432.3790809103 Eh  1.012 eV   8166.1 cm**-1
      0.16310 [     5]: 11122
      0.08848 [     2]: 02212
      0.08785 [    21]: 21211
      0.06766 [    22]: 21220
      0.06075 [    20]: 21202
      0.05748 [     1]: 02122
      0.05331 [     6]: 11212
      0.04313 [    29]: 22210
      0.03617 [    16]: 20221
      0.03565 [     8]: 12022
      0.03160 [    12]: 12211
      0.02814 [    26]: 22111
      0.02801 [     0]: 01222
      0.02460 [    19]: 21121
      0.02369 [    18]: 21112
      0.02013 [    27]: 22120
      0.02011 [    23]: 22012
      0.01996 [    14]: 20122
      0.01673 [    10]: 12121
      0.01598 [    17]: 21022
      0.01485 [     7]: 11221
      0.01393 [     9]: 12112
      0.01230 [    15]: 20212
      0.01154 [    24]: 22021
      0.00795 [    28]: 22201
      0.00746 [     3]: 02221
      0.00716 [     4]: 10222
ROOT  20:  E=   -6432.3728532479 Eh  1.182 eV   9533.0 cm**-1
      0.16567 [    19]: 21121
      0.10129 [    18]: 21112
      0.08389 [     4]: 10222
      0.08153 [    25]: 22102
      0.07128 [     1]: 02122
      0.06876 [     5]: 11122
      0.05420 [    26]: 22111
      0.05182 [    12]: 12211
      0.05057 [     6]: 11212
      0.04910 [     2]: 02212
      0.03920 [     7]: 11221
      0.02688 [    15]: 20212
      0.02291 [    23]: 22012
      0.02160 [    10]: 12121
      0.01887 [    11]: 12202
      0.01863 [     9]: 12112
      0.01352 [    21]: 21211
      0.00876 [    29]: 22210
      0.00841 [     0]: 01222
      0.00785 [    24]: 22021
      0.00769 [    20]: 21202
      0.00710 [    13]: 12220
      0.00686 [     3]: 02221
      0.00461 [     8]: 12022
      0.00267 [    16]: 20221
ROOT  21:  E=   -6432.3705497432 Eh  1.245 eV  10038.5 cm**-1
      0.30312 [    26]: 22111
      0.12409 [    10]: 12121
      0.09895 [     5]: 11122
      0.08403 [     9]: 12112
      0.08167 [    21]: 21211
      0.07097 [    15]: 20212
      0.03263 [     7]: 11221
      0.02951 [    19]: 21121
      0.02858 [     6]: 11212
      0.02730 [     2]: 02212
      0.02281 [     8]: 12022
      0.02232 [    12]: 12211
      0.01617 [    24]: 22021
      0.01391 [    25]: 22102
      0.01268 [    11]: 12202
      0.00810 [    18]: 21112
      0.00798 [    23]: 22012
      0.00542 [    16]: 20221
      0.00313 [    27]: 22120
ROOT  22:  E=   -6432.3705497427 Eh  1.245 eV  10038.5 cm**-1
      0.17744 [    24]: 22021
      0.12508 [    28]: 22201
      0.11787 [     6]: 11212
      0.10920 [    12]: 12211
      0.10336 [    19]: 21121
      0.04877 [    14]: 20122
      0.03772 [     9]: 12112
      0.03514 [    18]: 21112
      0.03476 [    21]: 21211
      0.02819 [    10]: 12121
      0.02759 [    11]: 12202
      0.02701 [     1]: 02122
      0.02476 [     5]: 11122
      0.02246 [     8]: 12022
      0.02050 [     3]: 02221
      0.01840 [    23]: 22012
      0.01039 [     2]: 02212
      0.01026 [    26]: 22111
      0.00572 [    16]: 20221
      0.00374 [    17]: 21022
ROOT  23:  E=   -6432.3642203658 Eh  1.417 eV  11427.7 cm**-1
      0.14015 [     8]: 12022
      0.08795 [    11]: 12202
      0.08769 [     7]: 11221
      0.06335 [    26]: 22111
      0.06270 [    12]: 12211
      0.05438 [    13]: 12220
      0.05275 [    21]: 21211
      0.05004 [    15]: 20212
      0.04994 [    18]: 21112
      0.04470 [     2]: 02212
      0.04349 [    29]: 22210
      0.04096 [     9]: 12112
      0.04046 [    27]: 22120
      0.03491 [     6]: 11212
      0.03428 [    24]: 22021
      0.02219 [    10]: 12121
      0.01944 [    14]: 20122
      0.01589 [    16]: 20221
      0.01258 [     0]: 01222
      0.00951 [    20]: 21202
      0.00803 [     5]: 11122
      0.00494 [    17]: 21022
      0.00418 [    19]: 21121
      0.00417 [    25]: 22102
      0.00351 [    22]: 21220
      0.00348 [    23]: 22012
ROOT  24:  E=   -6432.3642188923 Eh  1.417 eV  11428.0 cm**-1
      0.12127 [    17]: 21022
      0.11245 [    21]: 21211
      0.09140 [    19]: 21121
      0.08198 [    10]: 12121
      0.06643 [     6]: 11212
      0.06518 [     9]: 12112
      0.05771 [    20]: 21202
      0.04278 [    14]: 20122
      0.04206 [     5]: 11122
      0.03683 [    18]: 21112
      0.03547 [    29]: 22210
      0.02442 [    12]: 12211
      0.02441 [    11]: 12202
      0.02301 [    13]: 12220
      0.02293 [     3]: 02221
      0.02239 [     1]: 02122
      0.01969 [    26]: 22111
      0.01920 [     2]: 02212
      0.01850 [     7]: 11221
      0.01775 [    28]: 22201
      0.01350 [    15]: 20212
      0.01054 [    27]: 22120
      0.00929 [    23]: 22012
      0.00692 [    22]: 21220
      0.00650 [     4]: 10222
      0.00350 [    16]: 20221
      0.00292 [     8]: 12022
ROOT  25:  E=   -6432.3608029258 Eh  1.510 eV  12177.7 cm**-1
      0.11263 [    24]: 22021
      0.08490 [    21]: 21211
      0.07146 [    12]: 12211
      0.06104 [     0]: 01222
      0.05958 [    11]: 12202
      0.05807 [    14]: 20122
      0.05775 [     5]: 11122
      0.05521 [    10]: 12121
      0.04818 [    19]: 21121
      0.04348 [    28]: 22201
      0.04298 [     9]: 12112
      0.03813 [    23]: 22012
      0.03690 [     7]: 11221
      0.03469 [     2]: 02212
      0.03162 [    20]: 21202
      0.02972 [     6]: 11212
      0.02581 [    17]: 21022
      0.02123 [    26]: 22111
      0.02022 [    16]: 20221
      0.01815 [    25]: 22102
      0.01784 [    18]: 21112
      0.01021 [    27]: 22120
      0.00888 [     8]: 12022
      0.00369 [    15]: 20212
ROOT  26:  E=   -6432.3569728985 Eh  1.614 eV  13018.3 cm**-1
      0.17940 [     9]: 12112
      0.14527 [    17]: 21022
      0.09557 [     5]: 11122
      0.09444 [    18]: 21112
      0.08100 [    20]: 21202
      0.05942 [    15]: 20212
      0.05096 [     8]: 12022
      0.04590 [    26]: 22111
      0.04410 [     6]: 11212
      0.04073 [    11]: 12202
      0.03208 [    10]: 12121
      0.02671 [     2]: 02212
      0.02506 [     1]: 02122
      0.01728 [    19]: 21121
      0.01076 [    21]: 21211
      0.00748 [    16]: 20221
      0.00735 [    12]: 12211
      0.00652 [     0]: 01222
      0.00614 [    23]: 22012
      0.00552 [    14]: 20122
      0.00478 [    28]: 22201
      0.00413 [    25]: 22102
      0.00379 [     7]: 11221
      0.00291 [     3]: 02221
ROOT  27:  E=   -6432.3569728985 Eh  1.614 eV  13018.3 cm**-1
      0.22558 [    18]: 21112
      0.12123 [     8]: 12022
      0.09243 [     9]: 12112
      0.08193 [     6]: 11212
      0.06340 [    11]: 12202
      0.06255 [    14]: 20122
      0.05083 [     5]: 11122
      0.04903 [    20]: 21202
      0.04427 [    17]: 21022
      0.03397 [     1]: 02122
      0.03391 [    24]: 22021
      0.02192 [     2]: 02212
      0.02066 [    12]: 12211
      0.01872 [    19]: 21121
      0.01635 [    21]: 21211
      0.01467 [    28]: 22201
      0.01208 [     7]: 11221
      0.00659 [    26]: 22111
      0.00634 [     4]: 10222
      0.00553 [    10]: 12121
      0.00512 [     3]: 02221
      0.00431 [    23]: 22012
      0.00417 [    15]: 20212
      0.00354 [    25]: 22102
ROOT  28:  E=   -6432.3052198635 Eh  3.022 eV  24376.8 cm**-1
      0.30280 [    26]: 22111
      0.12016 [     7]: 11221
      0.08275 [     5]: 11122
      0.06690 [    10]: 12121
      0.06160 [     6]: 11212
      0.04829 [    18]: 21112
      0.04087 [     4]: 10222
      0.04059 [    25]: 22102
      0.03672 [     9]: 12112
      0.03588 [     0]: 01222
      0.03336 [    12]: 12211
      0.03050 [    27]: 22120
      0.02464 [    22]: 21220
      0.02436 [    21]: 21211
      0.01114 [    15]: 20212
      0.00963 [     2]: 02212
      0.00854 [    13]: 12220
      0.00533 [    19]: 21121
      0.00360 [     8]: 12022
ROOT  29:  E=   -6432.3023557616 Eh  3.100 eV  25005.4 cm**-1
      0.13881 [     9]: 12112
      0.13645 [     1]: 02122
      0.12323 [     7]: 11221
      0.11446 [    26]: 22111
      0.08959 [    19]: 21121
      0.08583 [    25]: 22102
      0.06528 [    20]: 21202
      0.04391 [    29]: 22210
      0.04015 [    22]: 21220
      0.02969 [     6]: 11212
      0.02968 [     0]: 01222
      0.02062 [    13]: 12220
      0.01732 [    21]: 21211
      0.01395 [    17]: 21022
      0.01319 [    10]: 12121
      0.01256 [     5]: 11122
      0.00736 [    27]: 22120
      0.00338 [     2]: 02212
      0.00270 [    12]: 12211
ROOT  30:  E=   -6432.3023527756 Eh  3.100 eV  25006.0 cm**-1
      0.20095 [    18]: 21112
      0.10177 [    13]: 12220
      0.07383 [     4]: 10222
      0.07318 [    23]: 22012
      0.07101 [    14]: 20122
      0.06278 [    25]: 22102
      0.05609 [    29]: 22210
      0.04864 [     8]: 12022
      0.04574 [    15]: 20212
      0.03792 [     7]: 11221
      0.03040 [     0]: 01222
      0.02534 [     5]: 11122
      0.02295 [    12]: 12211
      0.02140 [     3]: 02221
      0.01942 [    27]: 22120
      0.01801 [    17]: 21022
      0.01475 [    28]: 22201
      0.01379 [     1]: 02122
      0.01162 [    21]: 21211
      0.01064 [     9]: 12112
      0.00939 [    19]: 21121
      0.00735 [    11]: 12202
      0.00717 [     6]: 11212
      0.00577 [    10]: 12121
      0.00547 [    22]: 21220
      0.00253 [    26]: 22111
ROOT  31:  E=   -6432.2985657683 Eh  3.203 eV  25837.2 cm**-1
      0.11951 [    18]: 21112
      0.09020 [     9]: 12112
      0.08694 [     3]: 02221
      0.08516 [    15]: 20212
      0.07840 [    14]: 20122
      0.06310 [    21]: 21211
      0.04444 [     6]: 11212
      0.04350 [     8]: 12022
      0.04274 [    23]: 22012
      0.03894 [    10]: 12121
      0.03738 [     0]: 01222
      0.03588 [    13]: 12220
      0.03331 [     5]: 11122
      0.02975 [    12]: 12211
      0.02641 [     7]: 11221
      0.02477 [    27]: 22120
      0.02381 [    25]: 22102
      0.02159 [    16]: 20221
      0.01684 [    26]: 22111
      0.01553 [     2]: 02212
      0.01298 [    11]: 12202
      0.00883 [    19]: 21121
      0.00613 [    20]: 21202
      0.00442 [    28]: 22201
      0.00409 [    29]: 22210
      0.00379 [     4]: 10222
ROOT  32:  E=   -6432.2985652447 Eh  3.203 eV  25837.3 cm**-1
      0.14710 [    18]: 21112
      0.12834 [     5]: 11122
      0.09465 [     7]: 11221
      0.09348 [     9]: 12112
      0.07572 [    12]: 12211
      0.04973 [    17]: 21022
      0.04364 [    29]: 22210
      0.03872 [     2]: 02212
      0.03406 [     1]: 02122
      0.03277 [    19]: 21121
      0.03267 [    10]: 12121
      0.03216 [    20]: 21202
      0.02780 [     4]: 10222
      0.02337 [    28]: 22201
      0.02295 [    14]: 20122
      0.02189 [    21]: 21211
      0.01776 [    23]: 22012
      0.01739 [     6]: 11212
      0.01224 [    16]: 20221
      0.01141 [     0]: 01222
      0.01108 [    11]: 12202
      0.01089 [    22]: 21220
      0.00823 [    27]: 22120
      0.00507 [    25]: 22102
      0.00285 [    26]: 22111
ROOT  33:  E=   -6432.2917507777 Eh  3.389 eV  27332.9 cm**-1
      0.11820 [    26]: 22111
      0.10888 [    17]: 21022
      0.10803 [     6]: 11212
      0.08281 [    18]: 21112
      0.07519 [     9]: 12112
      0.05878 [    12]: 12211
      0.05605 [     8]: 12022
      0.05064 [    25]: 22102
      0.04361 [    28]: 22201
      0.04268 [     3]: 02221
      0.04088 [     7]: 11221
      0.03842 [     4]: 10222
      0.03447 [     0]: 01222
      0.03149 [    14]: 20122
      0.02556 [    19]: 21121
      0.02022 [    10]: 12121
      0.01772 [    20]: 21202
      0.00990 [    24]: 22021
      0.00947 [    16]: 20221
      0.00676 [     5]: 11122
      0.00551 [     1]: 02122
      0.00519 [    15]: 20212
      0.00330 [    21]: 21211
      0.00302 [    23]: 22012
ROOT  34:  E=   -6432.2917507758 Eh  3.389 eV  27332.9 cm**-1
      0.18509 [     5]: 11122
      0.11555 [    18]: 21112
      0.09499 [    10]: 12121
      0.06598 [    23]: 22012
      0.05477 [    20]: 21202
      0.05414 [    24]: 22021
      0.05340 [    26]: 22111
      0.05308 [    28]: 22201
      0.03556 [     7]: 11221
      0.03424 [    11]: 12202
      0.03089 [    12]: 12211
      0.03005 [     6]: 11212
      0.02948 [     9]: 12112
      0.02944 [    15]: 20212
      0.02213 [    21]: 21211
      0.01577 [     1]: 02122
      0.01550 [     2]: 02212
      0.01406 [     0]: 01222
      0.01267 [     3]: 02221
      0.01216 [    16]: 20221
      0.01201 [     4]: 10222
      0.01016 [    14]: 20122
      0.00782 [    17]: 21022
      0.00433 [    19]: 21121
      0.00387 [     8]: 12022
ROOT  35:  E=   -6432.2088961283 Eh  5.643 eV  45517.4 cm**-1
      0.19613 [     3]: 02221
      0.15208 [    16]: 20221
      0.14896 [    28]: 22201
      0.11228 [    24]: 22021
      0.05283 [    15]: 20212
      0.03970 [    29]: 22210
      0.03940 [    13]: 12220
      0.03722 [     4]: 10222
      0.02607 [     8]: 12022
      0.02574 [    14]: 20122
      0.02516 [     0]: 01222
      0.01608 [    21]: 21211
      0.01482 [     9]: 12112
      0.01272 [     6]: 11212
      0.01261 [     5]: 11122
      0.01240 [    10]: 12121
      0.01211 [    23]: 22012
      0.01189 [     2]: 02212
      0.00958 [     7]: 11221
      0.00846 [    12]: 12211
      0.00774 [    11]: 12202
      0.00631 [    26]: 22111
      0.00540 [    19]: 21121
      0.00374 [    18]: 21112
      0.00310 [    20]: 21202
      0.00283 [    17]: 21022
ROOT  36:  E=   -6432.1999512759 Eh  5.887 eV  47480.6 cm**-1
      0.18461 [     4]: 10222
      0.10503 [    13]: 12220
      0.10386 [    23]: 22012
      0.09051 [    11]: 12202
      0.06137 [    28]: 22201
      0.05864 [     8]: 12022
      0.05291 [    24]: 22021
      0.04759 [     3]: 02221
      0.04161 [    29]: 22210
      0.03525 [     2]: 02212
      0.02857 [    16]: 20221
      0.02686 [    18]: 21112
      0.02528 [    26]: 22111
      0.01922 [     7]: 11221
      0.01808 [     9]: 12112
      0.01787 [    10]: 12121
      0.01640 [    20]: 21202
      0.01166 [     5]: 11122
      0.01080 [    21]: 21211
      0.00934 [    27]: 22120
      0.00870 [    14]: 20122
      0.00712 [    15]: 20212
      0.00653 [     1]: 02122
      0.00305 [    25]: 22102
ROOT  37:  E=   -6432.1999502844 Eh  5.887 eV  47480.8 cm**-1
      0.20378 [     0]: 01222
      0.14691 [    17]: 21022
      0.10509 [    20]: 21202
      0.09877 [    22]: 21220
      0.09507 [    25]: 22102
      0.03506 [    27]: 22120
      0.03301 [    14]: 20122
      0.02446 [    26]: 22111
      0.02325 [     5]: 11122
      0.02281 [     8]: 12022
      0.02174 [    28]: 22201
      0.02165 [    15]: 20212
      0.01921 [    10]: 12121
      0.01701 [     9]: 12112
      0.01642 [    13]: 12220
      0.01542 [    18]: 21112
      0.01533 [    29]: 22210
      0.01409 [    23]: 22012
      0.01300 [    12]: 12211
      0.01273 [    21]: 21211
      0.01072 [    24]: 22021
      0.00904 [    19]: 21121
      0.00698 [     4]: 10222
      0.00470 [     3]: 02221
      0.00458 [     6]: 11212
      0.00357 [     2]: 02212
      0.00327 [     1]: 02122
ROOT  38:  E=   -6432.1690413080 Eh  6.728 eV  54264.5 cm**-1
      0.18413 [    25]: 22102
      0.16474 [    23]: 22012
      0.10445 [     4]: 10222
      0.09320 [    14]: 20122
      0.07316 [     1]: 02122
      0.05614 [    18]: 21112
      0.05404 [     8]: 12022
      0.03989 [    15]: 20212
      0.03096 [     2]: 02212
      0.02919 [    27]: 22120
      0.02815 [    29]: 22210
      0.02553 [     5]: 11122
      0.02233 [     9]: 12112
      0.02130 [     6]: 11212
      0.01070 [    11]: 12202
      0.00979 [    26]: 22111
      0.00889 [     7]: 11221
      0.00728 [     0]: 01222
      0.00634 [    24]: 22021
      0.00610 [    13]: 12220
      0.00533 [    12]: 12211
      0.00466 [    19]: 21121
      0.00407 [    17]: 21022
      0.00300 [    10]: 12121
ROOT  39:  E=   -6432.1690401114 Eh  6.728 eV  54264.8 cm**-1
      0.20737 [    23]: 22012
      0.15823 [    25]: 22102
      0.09778 [     0]: 01222
      0.07638 [    17]: 21022
      0.05344 [     1]: 02122
      0.04582 [    20]: 21202
      0.04502 [     5]: 11122
      0.04139 [     9]: 12112
      0.03776 [    15]: 20212
      0.03709 [     8]: 12022
      0.03252 [    14]: 20122
      0.02488 [    27]: 22120
      0.02007 [     6]: 11212
      0.01602 [     2]: 02212
      0.01403 [    29]: 22210
      0.01193 [    13]: 12220
      0.01084 [    22]: 21220
      0.01077 [    11]: 12202
      0.00914 [    26]: 22111
      0.00908 [     4]: 10222
      0.00839 [    21]: 21211
      0.00814 [    24]: 22021
      0.00806 [     3]: 02221
      0.00686 [    18]: 21112
      0.00296 [    12]: 12211
      0.00274 [     7]: 11221

                 <<<<<<<<<<<<<<<<<<INITIAL CI STATE CHECK>>>>>>>>>>>>>>>>>>

   E(CAS)= -6432.405244395 Eh DE=    0.000000e+00
   --- Energy gap subspaces: Ext-Act = 1.530   Act-Int = -0.090
   --- current l-shift: Up(Ext-Act) = 1.00   Dn(Act-Int) = 2.09
   N(occ)=  1.40000 1.40000 1.40000 1.40000 1.40000
   ||g|| =     1.640906e-04 Max(G)=    3.867743e-05 Rot=86,46
   --- Orbital Update [   SuperCI]
   SUPERCI-ITER   0: DE=    -0.000000001 <r|r>=      0.000000000
   <Psi(SX)|Psi(SX)>=      1.000000000 DE(SX)=-0.000000001
   Largest coefficient in the normalized |SX> wavefunction= 0.000015056
   --- Forming Natural Orbitals

MACRO-ITERATION   2: 
   ===>>> Convergence to 3.0e-02 achieved - switching to Step=DIIS
   --- Inactive Energy E0 = -6409.58174648 Eh
CI-ITERATION   0: 
 -6432.495724236   0.000000000000 (    0.00)
 -6432.495724235   0.000000000000
 -6432.486991305   0.000000000000
 -6432.484474718   0.000000000000
 -6432.484474371   0.000000000000
 -6432.483397761   0.000000000000
 -6432.483395930   0.000000000000
 -6432.421156121   0.000000000000
 -6432.396685668   0.000000000000
 -6432.396681818   0.000000000000
   CI-PROBLEM SOLVED
   DENSITIES MADE
CI-ITERATION   0: 
 -6432.416288634   0.000000000000 (    0.01)
 -6432.416287577   0.000000000000
 -6432.413050715   0.000000000000
 -6432.413049891   0.000000000000
 -6432.411949601   0.000000000000
 -6432.411949600   0.000000000000
 -6432.409563954   0.000000000000
 -6432.399612713   0.000000000000
 -6432.398983204   0.000000000000
 -6432.398983203   0.000000000000
 -6432.397241720   0.000000000000
 -6432.397241111   0.000000000000
 -6432.387684943   0.000000000000
 -6432.387684842   0.000000000000
 -6432.386091823   0.000000000000
 -6432.386089055   0.000000000000
 -6432.380116084   0.000000000000
 -6432.380116083   0.000000000000
 -6432.379081766   0.000000000000
 -6432.379080879   0.000000000000
 -6432.372853198   0.000000000000
 -6432.370549753   0.000000000000
 -6432.370549753   0.000000000000
 -6432.364220363   0.000000000000
 -6432.364218875   0.000000000000
 -6432.360802910   0.000000000000
 -6432.356972889   0.000000000000
 -6432.356972889   0.000000000000
 -6432.305219778   0.000000000000
 -6432.302355307   0.000000000000
 -6432.302353064   0.000000000000
 -6432.298565681   0.000000000000
 -6432.298565160   0.000000000000
 -6432.291750697   0.000000000000
 -6432.291750695   0.000000000000
 -6432.208895980   0.000000000000
 -6432.199951353   0.000000000000
 -6432.199949885   0.000000000000
 -6432.169041186   0.000000000000
 -6432.169040009   0.000000000000
   CI-PROBLEM SOLVED
   DENSITIES MADE
   E(CAS)= -6432.405244393 Eh DE=    1.246917e-09
   --- Energy gap subspaces: Ext-Act = 1.526   Act-Int = -0.095
   --- current l-shift: Up(Ext-Act) = 0.50   Dn(Act-Int) = 1.59
   N(occ)=  1.40000 1.40000 1.40000 1.40000 1.40000
   ||g|| =     1.066691e-04 Max(G)=    2.982085e-05 Rot=86,46
                     ---- THE CAS-SCF ENERGY   HAS CONVERGED ----
                            --- FINALIZING ORBITALS ---
                    ---- DOING ONE FINAL ITERATION FOR PRINTING ----
   --- d-orbitals (depends on the molecular axis frame)
 L-Center:  0 Co [0.000, 0.000, -0.000] 
   --- The active space contains 5 d Orbitals : OK
 Setting 57 active MO to AO dz2     (25)
 Setting 58 active MO to AO dxz     (26)
 Setting 59 active MO to AO dyz     (27)
 Setting 60 active MO to AO dx2y2   (28)
 Setting 61 active MO to AO dxy     (29)
   --- Canonicalize Internal Space
   --- Canonicalize External Space

MACRO-ITERATION   3: 
   --- Inactive Energy E0 = -6409.58174648 Eh
   --- All densities will be recomputed
CI-ITERATION   0: 
 -6432.495724250   0.000000000000 (    0.00)
 -6432.495724249   0.000000000000
 -6432.486991318   0.000000000000
 -6432.484474734   0.000000000000
 -6432.484474379   0.000000000000
 -6432.483397772   0.000000000000
 -6432.483395952   0.000000000000
 -6432.421156136   0.000000000000
 -6432.396685674   0.000000000000
 -6432.396681829   0.000000000000
   CI-PROBLEM SOLVED
   DENSITIES MADE
CI-ITERATION   0: 
 -6432.416288641   0.000000000000 (    0.01)
 -6432.416287592   0.000000000000
 -6432.413050731   0.000000000000
 -6432.413049907   0.000000000000
 -6432.411949614   0.000000000000
 -6432.411949613   0.000000000000
 -6432.409563971   0.000000000000
 -6432.399612734   0.000000000000
 -6432.398983217   0.000000000000
 -6432.398983217   0.000000000000
 -6432.397241733   0.000000000000
 -6432.397241132   0.000000000000
 -6432.387684963   0.000000000000
 -6432.387684862   0.000000000000
 -6432.386091845   0.000000000000
 -6432.386089075   0.000000000000
 -6432.380116097   0.000000000000
 -6432.380116096   0.000000000000
 -6432.379081782   0.000000000000
 -6432.379080898   0.000000000000
 -6432.372853211   0.000000000000
 -6432.370549760   0.000000000000
 -6432.370549760   0.000000000000
 -6432.364220376   0.000000000000
 -6432.364218886   0.000000000000
 -6432.360802920   0.000000000000
 -6432.356972896   0.000000000000
 -6432.356972896   0.000000000000
 -6432.305219789   0.000000000000
 -6432.302355319   0.000000000000
 -6432.302353075   0.000000000000
 -6432.298565695   0.000000000000
 -6432.298565176   0.000000000000
 -6432.291750706   0.000000000000
 -6432.291750705   0.000000000000
 -6432.208895999   0.000000000000
 -6432.199951364   0.000000000000
 -6432.199949901   0.000000000000
 -6432.169041186   0.000000000000
 -6432.169040017   0.000000000000
   CI-PROBLEM SOLVED
   DENSITIES MADE
   E(CAS)= -6432.405244407 Eh DE=   -1.323315e-08
   --- Energy gap subspaces: Ext-Act = 0.461   Act-Int = -0.118
   --- current l-shift: Up(Ext-Act) = 0.87   Dn(Act-Int) = 1.45
   N(occ)=  1.40000 1.40000 1.40000 1.40000 1.40000
   ||g|| =     1.066691e-04 Max(G)=    4.825916e-05 Rot=62,53
--------------
CASSCF RESULTS
--------------

Final CASSCF energy       : -6432.405244407 Eh -175034.6453 eV

----------------
ORBITAL ENERGIES
----------------

  NO   OCC          E(Eh)            E(eV) 
   0   2.0000    -467.984163    -12734.4965 
   1   2.0000    -467.984163    -12734.4965 
   2   2.0000    -285.861855     -7778.6965 
   3   2.0000     -62.288368     -1694.9527 
   4   2.0000     -62.288368     -1694.9527 
   5   2.0000     -54.612912     -1486.0929 
   6   2.0000     -54.612912     -1486.0929 
   7   2.0000     -54.611647     -1486.0585 
   8   2.0000     -54.611647     -1486.0585 
   9   2.0000     -54.611646     -1486.0584 
  10   2.0000     -54.611646     -1486.0584 
  11   2.0000     -35.563355      -967.7281 
  12   2.0000     -30.337080      -825.5139 
  13   2.0000     -30.337080      -825.5139 
  14   2.0000     -30.333040      -825.4040 
  15   2.0000     -15.610714      -424.7891 
  16   2.0000     -15.610713      -424.7891 
  17   2.0000     -11.381558      -309.7079 
  18   2.0000     -11.381558      -309.7079 
  19   2.0000      -9.167589      -249.4628 
  20   2.0000      -9.167589      -249.4628 
  21   2.0000      -6.683496      -181.8672 
  22   2.0000      -6.683496      -181.8672 
  23   2.0000      -6.676472      -181.6760 
  24   2.0000      -6.676472      -181.6760 
  25   2.0000      -6.676471      -181.6760 
  26   2.0000      -6.676471      -181.6760 
  27   2.0000      -4.714653      -128.2922 
  28   2.0000      -3.124899       -85.0328 
  29   2.0000      -3.123381       -84.9915 
  30   2.0000      -3.123381       -84.9915 
  31   2.0000      -2.558561       -69.6220 
  32   2.0000      -2.558560       -69.6220 
  33   2.0000      -2.553153       -69.4748 
  34   2.0000      -2.553153       -69.4748 
  35   2.0000      -2.553152       -69.4748 
  36   2.0000      -2.553151       -69.4748 
  37   2.0000      -2.544629       -69.2429 
  38   2.0000      -2.544629       -69.2429 
  39   2.0000      -2.544594       -69.2419 
  40   2.0000      -2.544594       -69.2419 
  41   2.0000      -1.262830       -34.3633 
  42   2.0000      -1.258252       -34.2388 
  43   2.0000      -0.979118       -26.6432 
  44   2.0000      -0.976625       -26.5753 
  45   2.0000      -0.786708       -21.4074 
  46   2.0000      -0.717521       -19.5247 
  47   2.0000      -0.577772       -15.7220 
  48   2.0000      -0.572005       -15.5651 
[...]
 3 106   44942.6    222.5   0.00000   0.00023   0.00000   0.00000000001045   0.00000   0.99948   0.00051
 3 107   44942.6    222.5   0.00000   0.00054   0.00000   0.00000000002431   0.00000   0.99978   0.00022
 3 108   45285.0    220.8   0.00000   0.00000   0.00000   0.00000000000000   0.00031   0.00240   0.99729
 3 109   45285.0    220.8   0.00000   0.00000   0.00000   0.00000000000000   0.00031   0.00172   0.99796
 3 110   63310.7    158.0   0.00000   0.00000   0.00000   0.00000000000001   0.00000   0.00000   0.00000
 3 111   63310.7    158.0   0.00000   0.00000   0.00000   0.00000000000001   0.00000   1.00000   0.00000
 3 112   65071.1    153.7   0.00000   0.00000   0.00000   0.00000000000010   0.00000   1.00000   0.00000
 3 113   65071.1    153.7   0.00000   0.00000   0.00000   0.00000000000007   0.00000   1.00000   0.00000
 3 114   65475.8    152.7   0.00000   0.00000   0.00000   0.00000000000001   0.00009   0.00001   0.99991
 3 115   65475.8    152.7   0.00000   0.00000   0.00000   0.00000000000001   0.00009   0.00000   0.99991
 3 116   71757.6    139.4   0.00000   0.00000   0.00000   0.00000000000001   0.00011   0.00000   0.99989
 3 117   71757.6    139.4   0.00000   0.00000   0.00000   0.00000000000001   0.00011   0.00000   0.99989
 3 118   72343.0    138.2   0.00000   0.00001   0.00000   0.00000000000063   0.00000   0.98089   0.01911
 3 119   72343.0    138.2   0.00000   0.00004   0.00000   0.00000000000191   0.00001   0.99365   0.00634

Done

                 =============================
                 AB INITIO LIGAND FIELD THEORY
                       d7 configuration
                          2 CI blocks
                         MOs 57 to 61
                 =============================

Metal/Atom center is atom 0
orbital phases =   1.0   1.0   1.0   1.0   1.0 
Metal/Atom d-orbital parts of active orbitals
Shell 15
             57        58        59        60        61
dz2     :  0.607345 -0.000004  0.000000 -0.001401  0.000014
dxz     : -0.000075  0.614224 -0.000015 -0.000003 -0.000000
dyz     :  0.000001  0.000021  0.615029  0.000000 -0.000004
dx2y2   :  0.028137  0.000145 -0.000000  0.591019  0.000006
dxy     : -0.000286 -0.000001  0.000007  0.000480  0.614221
Shell 16
             57        58        59        60        61
dz2     :  0.407238  0.000007 -0.000000 -0.000859  0.000009
dxz     : -0.000042  0.408375  0.000008 -0.000006  0.000000
dyz     :  0.000000  0.000032  0.412433  0.000000  0.000002
dx2y2   :  0.018945  0.000092 -0.000000  0.396194 -0.000032
dxy     : -0.000193 -0.000000  0.000010  0.000288  0.408375
Shell 17
             57        58        59        60        61
dz2     :  0.211553 -0.000007 -0.000000  0.004718 -0.000054
dxz     : -0.000028  0.212192  0.000019  0.000018  0.000001
dyz     :  0.000000  0.000029  0.217105 -0.000000  0.000005
dx2y2   :  0.014852  0.000073 -0.000000  0.199602  0.000059
dxy     : -0.000144  0.000001  0.000009  0.000200  0.212194
Shell 20
             57        58        59        60        61
dz2     : -0.001058 -0.000056 -0.000000  0.028971 -0.000323
dxz     : -0.000055  0.003687  0.000044  0.000129  0.000000
dyz     : -0.000000  0.000062  0.014934 -0.000001  0.000018
dx2y2   :  0.028061  0.000138 -0.000000 -0.035886  0.000437
dxy     : -0.000257 -0.000000  0.000013  0.000380  0.003686

Adjusting phases of one-electron integrals               ... done
Adjusting phases of two-electron integrals               ... done


-----------------------------------------------------------------
Computing F0s from 2-electron integrals                  ... done 
-----------------------------------------------------------------
F0   =  0.874808007 a.u. =    23.805 eV =  191998.2 cm**-1
-----------------------------------------------------------------

Preparing for fit                                        ... done
Making fit matrices                                      ... done
Calculating ab initio Hamiltonian matrices               ... 
Calculating fit matrices                                 ... done
Fitting                                                  ... done

------------------------------
AILFT MATRIX ELEMENTS (CASSCF)
--------------------------------

Ligand field one-electron matrix VLFT (a.u.) : 
Orbital          dz2        dxz        dyz        dx2-y2     dxy
  dz2         -5.827436  -0.000009  -0.000000  -0.014498   0.000146 
  dxz         -0.000009  -5.815957  -0.000096  -0.000048  -0.000001 
  dyz         -0.000000  -0.000096  -5.835339   0.000000  -0.000029 
  dx2-y2      -0.014498  -0.000048   0.000000  -5.808732  -0.000070 
  dxy          0.000146  -0.000001  -0.000029  -0.000070  -5.815959 

-------------------------------------------------
Slater-Condon Parameters (electronic repulsion) : 
-------------------------------------------------
F0dd(from 2el Ints)     =  0.874808007 a.u. =    23.805 eV =  191998.2 cm**-1 (fixed)
F2dd                    =  0.394756189 a.u. =    10.742 eV =   86639.0 cm**-1
F4dd                    =  0.250951194 a.u. =     6.829 eV =   55077.4 cm**-1
-------------------
Racah Parameters : 
-------------------
A(F0dd from 2el Ints)   =  0.846924541 a.u. =    23.046 eV =  185878.5 cm**-1
B                       =  0.005210997 a.u. =     0.142 eV =    1143.7 cm**-1
C                       =  0.019916761 a.u. =     0.542 eV =    4371.2 cm**-1
C/B                     =  3.822
-------------------------------------------------------------------------------

-----------------------------------------
The ligand field one electron eigenfunctions:
-----------------------------------------
Orbital    Energy (eV)  Energy(cm-1)      dz2        dxz        dyz        dx2-y2     dxy
    1          0.000        0.0        -0.002224  -0.004967  -0.999983  -0.001214  -0.001488 
    2          0.000        0.4        -0.878073  -0.001604   0.002535  -0.478492   0.004904 
    3          0.527     4253.1        -0.000815   0.365292  -0.003210   0.009794   0.930836 
    4          0.527     4254.1        -0.002493   0.930875  -0.004072  -0.002313  -0.365299 
    5          0.939     7573.9        -0.478514  -0.002504   0.000024   0.878033  -0.008675 
Ligand field orbitals were stored in rho.casscf.lft.gbw

Calculating ligand field Hamiltonian matrices          ... done
Diagonalizing and fitting the ligand field Hamiltonian ... done
Calculating statistical parameters                     ... done

Reference energy AI-LFT =    -22.914543012 au
Reference energy AI     =    -22.913977765 au

------------------------------------------------
COMPARISON OF AB INITIO AND LIGAND FIELD RESULTS
------------------------------------------------

Block   1
---------
   AI-Root   0: E(AI)=    0.000 eV -> LF-Root   0:     0.000 eV    S= 0.997 Delta=    0.000 eV
   AI-Root   1: E(AI)=    0.000 eV -> LF-Root   1:     0.000 eV    S= 0.997 Delta=   -0.000 eV
   AI-Root   2: E(AI)=    0.238 eV -> LF-Root   2:     0.205 eV    S= 0.998 Delta=    0.033 eV
   AI-Root   3: E(AI)=    0.306 eV -> LF-Root   3:     0.274 eV    S= 0.946 Delta=    0.032 eV
   AI-Root   4: E(AI)=    0.306 eV -> LF-Root   4:     0.302 eV    S= 0.947 Delta=    0.005 eV
   AI-Root   5: E(AI)=    0.335 eV -> LF-Root   5:     0.412 eV    S= 0.998 Delta=   -0.077 eV
   AI-Root   6: E(AI)=    0.335 eV -> LF-Root   6:     0.412 eV    S= 1.000 Delta=   -0.076 eV
   AI-Root   7: E(AI)=    2.029 eV -> LF-Root   7:     1.922 eV    S= 1.000 Delta=    0.107 eV
   AI-Root   8: E(AI)=    2.695 eV -> LF-Root   8:     2.792 eV    S= 0.931 Delta=   -0.097 eV
   AI-Root   9: E(AI)=    2.695 eV -> LF-Root   9:     2.765 eV    S= 0.931 Delta=   -0.069 eV
   (Dropping RMS error for the reference energy)
   RMS error for this block =     0.066 eV =     534.3 cm**-1 

Block   2
---------
   AI-Root   0: E(AI)=    2.162 eV -> LF-Root   0:     2.193 eV    S= 0.999 Delta=   -0.031 eV
   AI-Root   1: E(AI)=    2.162 eV -> LF-Root   1:     2.193 eV    S= 0.999 Delta=   -0.032 eV
   AI-Root   2: E(AI)=    2.250 eV -> LF-Root   2:     2.276 eV    S= 0.928 Delta=   -0.026 eV
   AI-Root   3: E(AI)=    2.250 eV -> LF-Root   3:     2.271 eV    S= 0.928 Delta=   -0.022 eV
   AI-Root   4: E(AI)=    2.280 eV -> LF-Root   4:     2.376 eV    S= 0.824 Delta=   -0.097 eV
   AI-Root   5: E(AI)=    2.280 eV -> LF-Root   5:     2.376 eV    S= 0.824 Delta=   -0.097 eV
   AI-Root   6: E(AI)=    2.345 eV -> LF-Root   6:     2.332 eV    S= 0.999 Delta=    0.013 eV
   AI-Root   7: E(AI)=    2.615 eV -> LF-Root   7:     2.677 eV    S= 0.996 Delta=   -0.062 eV
   AI-Root   8: E(AI)=    2.632 eV -> LF-Root   8:     2.646 eV    S= 0.994 Delta=   -0.013 eV
   AI-Root   9: E(AI)=    2.632 eV -> LF-Root   9:     2.646 eV    S= 0.994 Delta=   -0.013 eV
   AI-Root  10: E(AI)=    2.680 eV -> LF-Root  10:     2.718 eV    S= 0.917 Delta=   -0.039 eV
   AI-Root  11: E(AI)=    2.680 eV -> LF-Root  11:     2.689 eV    S= 0.918 Delta=   -0.009 eV
   AI-Root  12: E(AI)=    2.940 eV -> LF-Root  12:     2.906 eV    S= 0.996 Delta=    0.034 eV
   AI-Root  13: E(AI)=    2.940 eV -> LF-Root  13:     2.907 eV    S= 0.993 Delta=    0.033 eV
   AI-Root  14: E(AI)=    2.983 eV -> LF-Root  14:     2.960 eV    S= 0.972 Delta=    0.023 eV
   AI-Root  15: E(AI)=    2.983 eV -> LF-Root  15:     2.960 eV    S= 0.973 Delta=    0.023 eV
   AI-Root  16: E(AI)=    3.146 eV -> LF-Root  16:     3.104 eV    S= 0.884 Delta=    0.042 eV
   AI-Root  17: E(AI)=    3.146 eV -> LF-Root  17:     3.104 eV    S= 0.884 Delta=    0.042 eV
   AI-Root  18: E(AI)=    3.174 eV -> LF-Root  18:     3.218 eV    S= 0.995 Delta=   -0.044 eV
   AI-Root  19: E(AI)=    3.174 eV -> LF-Root  19:     3.218 eV    S= 0.998 Delta=   -0.044 eV
   AI-Root  20: E(AI)=    3.343 eV -> LF-Root  20:     3.353 eV    S= 0.996 Delta=   -0.009 eV
   AI-Root  21: E(AI)=    3.406 eV -> LF-Root  21:     3.388 eV    S= 0.996 Delta=    0.018 eV
   AI-Root  22: E(AI)=    3.406 eV -> LF-Root  22:     3.388 eV    S= 0.996 Delta=    0.018 eV
   AI-Root  23: E(AI)=    3.578 eV -> LF-Root  23:     3.621 eV    S= 0.898 Delta=   -0.043 eV
   AI-Root  24: E(AI)=    3.578 eV -> LF-Root  24:     3.621 eV    S= 0.898 Delta=   -0.043 eV
   AI-Root  25: E(AI)=    3.671 eV -> LF-Root  25:     3.630 eV    S= 1.000 Delta=    0.042 eV
   AI-Root  26: E(AI)=    3.776 eV -> LF-Root  26:     3.841 eV    S= 0.991 Delta=   -0.065 eV
   AI-Root  27: E(AI)=    3.776 eV -> LF-Root  27:     3.841 eV    S= 0.991 Delta=   -0.065 eV
   AI-Root  28: E(AI)=    5.184 eV -> LF-Root  28:     5.214 eV    S= 1.000 Delta=   -0.031 eV
   AI-Root  29: E(AI)=    5.262 eV -> LF-Root  29:     5.303 eV    S= 0.923 Delta=   -0.042 eV
   AI-Root  30: E(AI)=    5.262 eV -> LF-Root  30:     5.302 eV    S= 0.924 Delta=   -0.040 eV
   AI-Root  31: E(AI)=    5.365 eV -> LF-Root  31:     5.397 eV    S= 0.999 Delta=   -0.032 eV
   AI-Root  32: E(AI)=    5.365 eV -> LF-Root  32:     5.397 eV    S= 1.000 Delta=   -0.032 eV
   AI-Root  33: E(AI)=    5.550 eV -> LF-Root  33:     5.583 eV    S= 0.825 Delta=   -0.033 eV
   AI-Root  34: E(AI)=    5.550 eV -> LF-Root  34:     5.583 eV    S= 0.825 Delta=   -0.033 eV
   AI-Root  35: E(AI)=    7.805 eV -> LF-Root  35:     7.735 eV    S= 1.000 Delta=    0.070 eV
   AI-Root  36: E(AI)=    8.048 eV -> LF-Root  36:     8.094 eV    S= 0.932 Delta=   -0.045 eV
   AI-Root  37: E(AI)=    8.048 eV -> LF-Root  37:     8.067 eV    S= 0.932 Delta=   -0.019 eV
   AI-Root  38: E(AI)=    8.889 eV -> LF-Root  38:     8.853 eV    S= 0.999 Delta=    0.037 eV
   AI-Root  39: E(AI)=    8.890 eV -> LF-Root  39:     8.853 eV    S= 0.999 Delta=    0.037 eV
   RMS error for this block =     0.042 eV =     341.6 cm**-1 

Total RMS error g=     0.048 eV =     384.3 cm**-1
Note: Dropped RMS error for the reference energy.

Confidence intervals (95%) computed from the square root of the
diagonal elements of the covariance matrix:
H(dz2   ,dz2   )=  0.000307927 a.u. =     0.008 eV =      67.6 cm**-1
H(dxz   ,dz2   )=  0.000260510 a.u. =     0.007 eV =      57.2 cm**-1
H(dxz   ,dxz   )=  0.000307927 a.u. =     0.008 eV =      67.6 cm**-1
H(dyz   ,dz2   )=  0.000260510 a.u. =     0.007 eV =      57.2 cm**-1
H(dyz   ,dxz   )=  0.000260510 a.u. =     0.007 eV =      57.2 cm**-1
H(dyz   ,dyz   )=  0.000307927 a.u. =     0.008 eV =      67.6 cm**-1
H(dx2-y2,dz2   )=  0.000260510 a.u. =     0.007 eV =      57.2 cm**-1
H(dx2-y2,dxz   )=  0.000260510 a.u. =     0.007 eV =      57.2 cm**-1
H(dx2-y2,dyz   )=  0.000260510 a.u. =     0.007 eV =      57.2 cm**-1
H(dx2-y2,dx2-y2)=  0.000307927 a.u. =     0.008 eV =      67.6 cm**-1
H(dxy   ,dz2   )=  0.000260510 a.u. =     0.007 eV =      57.2 cm**-1
H(dxy   ,dxz   )=  0.000260510 a.u. =     0.007 eV =      57.2 cm**-1
H(dxy   ,dyz   )=  0.000260510 a.u. =     0.007 eV =      57.2 cm**-1
H(dxy   ,dx2-y2)=  0.000260510 a.u. =     0.007 eV =      57.2 cm**-1
H(dxy   ,dxy   )=  0.000307927 a.u. =     0.008 eV =      67.6 cm**-1
F2dd            =  0.001105822 a.u. =     0.030 eV =     242.7 cm**-1
F4dd            =  0.001603834 a.u. =     0.044 eV =     352.0 cm**-1
Pearson's correlation coefficient =    1.000 (should be close to 1)

----------------------------------------------
SPIN ORBIT COUPLING (based on CASSCF orbitals)
----------------------------------------------

AI-SOC-X integrals (cm-1)
                  0          1          2          3          4    
      0       0.000000   0.255093 905.926329  -0.000908  -0.111120
      1      -0.255093   0.000000   0.093928   0.550874 533.326143
      2     -905.926329  -0.093928  -0.000000 -493.683582  -0.130024
      3       0.000908  -0.550874 493.683582   0.000000   0.008208
      4       0.111120 -533.326143   0.130024  -0.008208  -0.000000
AI-SOC-Y integrals (cm-1)
                  0          1          2          3          4    
      0      -0.000000 -858.318440  -0.216103   0.065761   0.000438
      1     858.318440   0.000000   0.000024 -497.725133  -0.142169
      2       0.216103  -0.000024  -0.000000  -0.389859 -515.509310
      3      -0.065761 497.725133   0.389859   0.000000  -0.000652
      4      -0.000438   0.142169 515.509310   0.000652  -0.000000
AI-SOC-Z integrals (cm-1)
                  0          1          2          3          4    
      0       0.000000   0.000286   0.062903  -0.495565 -47.002641
      1      -0.000286  -0.000000 -515.511819  -0.002011  -0.282038
      2      -0.062903 515.511819  -0.000000   0.007347   0.000640
      3       0.495565   0.002011  -0.007347   0.000000 -991.072765
      4      47.002641   0.282038  -0.000640 991.072765  -0.000000

Fit to the SOC matrix elements
a = 15.000000
b =     0.941 eV =    7593.7 cm**-1
SOC constant zeta =     0.063 eV =     506.2 cm**-1


LF-SOC-X integrals (cm-1)
                  0          1          2          3          4    
      0       0.000000  -0.000000 876.840686  -0.000000  -0.000000
      1       0.000000   0.000000  -0.000000  -0.000000 506.244206
      2     -876.840686   0.000000   0.000000 -506.244206  -0.000000
      3       0.000000   0.000000 506.244206   0.000000  -0.000000
      4       0.000000 -506.244206   0.000000   0.000000   0.000000
LF-SOC-Y integrals (cm-1)
                  0          1          2          3          4    
      0       0.000000 -876.840686  -0.000000  -0.000000  -0.000000
      1     876.840686   0.000000  -0.000000 -506.244206  -0.000000
      2       0.000000   0.000000   0.000000  -0.000000 -506.244206
      3       0.000000 506.244206   0.000000   0.000000  -0.000000
      4       0.000000   0.000000 506.244206   0.000000   0.000000
LF-SOC-Z integrals (cm-1)
                  0          1          2          3          4    
      0       0.000000  -0.000000  -0.000000  -0.000000  -0.000000
      1       0.000000   0.000000 -506.244206  -0.000000  -0.000000
      2       0.000000 506.244206   0.000000  -0.000000  -0.000000
      3       0.000000   0.000000   0.000000   0.000000 -1012.488412
      4       0.000000   0.000000   0.000000 1012.488412   0.000000

RMS error of nonzero matrix elements =   16.7 cm**-1


-----SOC-CONSTANTS-----
---All Values in cm-1---
ZETA_D = 506.24 
------------------------




---AILFT COMPLETED SUCCESFULLY!---

--------------
CASSCF TIMINGS
--------------

Total time                       ...       17.8 sec
Sum of individual times          ...       17.9 sec (100.5%)

Calculation of AO operators
   F(Core) operator              ...        3.9 sec ( 21.7%)
   G(Act) operator               ...        2.0 sec ( 11.2%)
   J(AO) operators               ...        0.0 sec (  0.0%)
Calculation of MO transformed quantities
   J(MO) operators               ...        0.7 sec (  3.8%)
   (pq|rs) integrals             ...        0.0 sec (  0.0%)
   AO->MO one electron integrals ...        0.0 sec (  0.2%)
Configuration interaction steps
   CI-setup phase                ...        0.0 sec (  0.1%)
   CI-solution phase             ...        0.2 sec (  0.9%)
   Generation of densities       ...        0.1 sec (  0.5%)
Orbital improvement steps
   Orbital gradient              ...        0.0 sec (  0.1%)
   O(1) converger                ...        0.0 sec (  0.1%)
Properties                       ...        6.6 sec ( 36.9%)
   SOC integral calculation      ...        4.3 sec ( 24.4%)
   SSC RMEs (incl. integrals)    ...        0.0 sec (  0.0%)
   SOC RMEs                      ...        0.1 sec (  0.7%)

Maximum memory used throughout the entire CASSCF-calculation: 343.6 MB

-------------------------   --------------------
FINAL SINGLE POINT ENERGY     -6432.405244406672
-------------------------   --------------------


                            ***************************************
                            *     ORCA property calculations      *
                            ***************************************

                                    ---------------------
                                    Active property flags
                                    ---------------------
   (+) Dipole Moment


------------------------------------------------------------------------------
                       ORCA ELECTRIC PROPERTIES CALCULATION
------------------------------------------------------------------------------

Dipole Moment Calculation                       ... on
Quadrupole Moment Calculation                   ... off
Polarizability Calculation                      ... off
GBWName                                         ... rho.gbw
Electron density                                ... rho.scfp
The origin for moment calculation is the CENTER OF MASS  = (-0.000000, -0.000079  0.000263)

-------------
DIPOLE MOMENT
-------------
                                X             Y             Z
Electronic contribution:     -0.00000      -0.00031       0.00104
Nuclear contribution   :      0.00001       0.00038      -0.00128
                        -----------------------------------------
Total Dipole Moment    :      0.00000       0.00007      -0.00024
                        -----------------------------------------
Magnitude (a.u.)       :      0.00025
Magnitude (Debye)      :      0.00063



--------------------
Rotational spectrum 
--------------------
 
Rotational constants in cm-1: 75385.101354     0.004403     0.004403 
Rotational constants in MHz : 2259988483.138187   132.010516   132.010509 

 Dipole components along the rotational axes: 
x,y,z [a.u.] :     0.000004    -0.000002    -0.000248 
x,y,z [Debye]:     0.000010    -0.000004    -0.000631 

 

Timings for individual modules:

Sum of individual times         ...       34.684 sec (=   0.578 min)
GTO integral calculation        ...        5.470 sec (=   0.091 min)  15.8 %
Relativistic integrals          ...        2.766 sec (=   0.046 min)   8.0 %
SCF iterations                  ...        3.022 sec (=   0.050 min)   8.7 %
CASSCF iterations               ...       23.425 sec (=   0.390 min)  67.5 %
                             ****ORCA TERMINATED NORMALLY****
TOTAL RUN TIME: 0 days 0 hours 0 minutes 38 seconds 763 msec
