
                                 *****************
                                 * O   R   C   A *
                                 *****************

                                            #,                                       
                                            ###                                      
                                            ####                                     
                                            #####                                    
                                            ######                                   
                                           ########,                                 
                                     ,,################,,,,,                         
                               ,,#################################,,                 
                          ,,##########################################,,             
                       ,#########################################, ''#####,          
                    ,#############################################,,   '####,        
                  ,##################################################,,,,####,       
                ,###########''''           ''''###############################       
              ,#####''   ,,,,##########,,,,          '''####'''          '####       
            ,##' ,,,,###########################,,,                        '##       
           ' ,,###''''                  '''############,,,                           
         ,,##''                                '''############,,,,        ,,,,,,###''
      ,#''                                            '''#######################'''  
     '                                                          ''''####''''         
             ,#######,   #######,   ,#######,      ##                                
            ,#'     '#,  ##    ##  ,#'     '#,    #''#        ######   ,####,        
            ##       ##  ##   ,#'  ##            #'  '#       #        #'  '#        
            ##       ##  #######   ##           ,######,      #####,   #    #        
            '#,     ,#'  ##    ##  '#,     ,#' ,#      #,         ##   #,  ,#        
             '#######'   ##     ##  '#######'  #'      '#     #####' # '####'        



                  #######################################################
                  #                        -***-                        #
                  #          Department of theory and spectroscopy      #
                  #    Directorship and core code : Frank Neese         #
                  #        Max Planck Institute fuer Kohlenforschung    #
                  #                Kaiser Wilhelm Platz 1               #
                  #                 D-45470 Muelheim/Ruhr               #
                  #                      Germany                        #
                  #                                                     #
                  #                  All rights reserved                #
                  #                        -***-                        #
                  #######################################################


                         Program Version 5.0.4 -  RELEASE  -


 With contributions from (in alphabetic order):
   Daniel Aravena         : Magnetic Suceptibility
   Michael Atanasov       : Ab Initio Ligand Field Theory (pilot matlab implementation)
   Alexander A. Auer      : GIAO ZORA, VPT2 properties, NMR spectrum
   Ute Becker             : Parallelization
   Giovanni Bistoni       : ED, misc. LED, open-shell LED, HFLD
   Martin Brehm           : Molecular dynamics
   Dmytro Bykov           : SCF Hessian
   Vijay G. Chilkuri      : MRCI spin determinant printing, contributions to CSF-ICE
   Dipayan Datta          : RHF DLPNO-CCSD density
   Achintya Kumar Dutta   : EOM-CC, STEOM-CC
   Dmitry Ganyushin       : Spin-Orbit,Spin-Spin,Magnetic field MRCI
   Miquel Garcia          : C-PCM and meta-GGA Hessian, CC/C-PCM, Gaussian charge scheme
   Yang Guo               : DLPNO-NEVPT2, F12-NEVPT2, CIM, IAO-localization
   Andreas Hansen         : Spin unrestricted coupled pair/coupled cluster methods
   Benjamin Helmich-Paris : MC-RPA, TRAH-SCF, COSX integrals
   Lee Huntington         : MR-EOM, pCC
   Robert Izsak           : Overlap fitted RIJCOSX, COSX-SCS-MP3, EOM
   Marcus Kettner         : VPT2
   Christian Kollmar      : KDIIS, OOCD, Brueckner-CCSD(T), CCSD density, CASPT2, CASPT2-K
   Simone Kossmann        : Meta GGA functionals, TD-DFT gradient, OOMP2, MP2 Hessian
   Martin Krupicka        : Initial AUTO-CI
   Lucas Lang             : DCDCAS
   Marvin Lechner         : AUTO-CI (C++ implementation), FIC-MRCC
   Dagmar Lenk            : GEPOL surface, SMD
   Dimitrios Liakos       : Extrapolation schemes; Compound Job, initial MDCI parallelization
   Dimitrios Manganas     : Further ROCIS development; embedding schemes
   Dimitrios Pantazis     : SARC Basis sets
   Anastasios Papadopoulos: AUTO-CI, single reference methods and gradients
   Taras Petrenko         : DFT Hessian,TD-DFT gradient, ASA, ECA, R-Raman, ABS, FL, XAS/XES, NRVS
   Peter Pinski           : DLPNO-MP2, DLPNO-MP2 Gradient
   Christoph Reimann      : Effective Core Potentials
   Marius Retegan         : Local ZFS, SOC
   Christoph Riplinger    : Optimizer, TS searches, QM/MM, DLPNO-CCSD(T), (RO)-DLPNO pert. Triples
   Tobias Risthaus        : Range-separated hybrids, TD-DFT gradient, RPA, STAB
   Michael Roemelt        : Original ROCIS implementation
   Masaaki Saitow         : Open-shell DLPNO-CCSD energy and density
   Barbara Sandhoefer     : DKH picture change effects
   Avijit Sen             : IP-ROCIS
   Kantharuban Sivalingam : CASSCF convergence, NEVPT2, FIC-MRCI
   Bernardo de Souza      : ESD, SOC TD-DFT
   Georgi Stoychev        : AutoAux, RI-MP2 NMR, DLPNO-MP2 response
   Willem Van den Heuvel  : Paramagnetic NMR
   Boris Wezisla          : Elementary symmetry handling
   Frank Wennmohs         : Technical directorship


 We gratefully acknowledge several colleagues who have allowed us to
 interface, adapt or use parts of their codes:
   Stefan Grimme, W. Hujo, H. Kruse, P. Pracht,  : VdW corrections, initial TS optimization,
                  C. Bannwarth, S. Ehlert          DFT functionals, gCP, sTDA/sTD-DF
   Ed Valeev, F. Pavosevic, A. Kumar             : LibInt (2-el integral package), F12 methods
   Garnet Chan, S. Sharma, J. Yang, R. Olivares  : DMRG
   Ulf Ekstrom                                   : XCFun DFT Library
   Mihaly Kallay                                 : mrcc  (arbitrary order and MRCC methods)
   Jiri Pittner, Ondrej Demel                    : Mk-CCSD
   Frank Weinhold                                : gennbo (NPA and NBO analysis)
   Christopher J. Cramer and Donald G. Truhlar   : smd solvation model
   Lars Goerigk                                  : TD-DFT with DH, B97 family of functionals
   V. Asgeirsson, H. Jonsson                     : NEB implementation
   FAccTs GmbH                                   : IRC, NEB, NEB-TS, DLPNO-Multilevel, CI-OPT
                                                   MM, QMMM, 2- and 3-layer-ONIOM, Crystal-QMMM,
                                                   LR-CPCM, SF, NACMEs, symmetry and pop. for TD-DFT,
                                                   nearIR, NL-DFT gradient (VV10), updates on ESD,
                                                   ML-optimized integration grids
   S Lehtola, MJT Oliveira, MAL Marques          : LibXC Library
   Liviu Ungur et al                             : ANISO software


 Your calculation uses the libint2 library for the computation of 2-el integrals
 For citations please refer to: http://libint.valeyev.net

 Your ORCA version has been built with support for libXC version: 5.1.0
 For citations please refer to: https://tddft.org/programs/libxc/

 This ORCA versions uses:
   CBLAS   interface :  Fast vector & matrix operations
   LAPACKE interface :  Fast linear algebra routines
   SCALAPACK package :  Parallel linear algebra routines
   Shared memory     :  Shared parallel matrices
   BLAS/LAPACK       :  OpenBLAS 0.3.15  USE64BITINT DYNAMIC_ARCH NO_AFFINITY Zen SINGLE_THREADED
        Core in use  :  Zen
   Copyright (c) 2011-2014, The OpenBLAS Project




***************************************
The coordinates will be read from file: geo.xyz
***************************************


================================================================================

----- Orbital basis set information -----
Your calculation utilizes the basis: DKH-def2-TZVPP
   Exponents from def2-TZVPP [F. Weigend and R. Ahlrichs, Phys. Chem. Chem. Phys. 7, 3297 (2005)],
   recontracted for DKH2 by D. A. Pantazis.

----- AuxJ basis set information -----
Your calculation utilizes the AutoAux generation procedure.
  G. L. Stoychev, A. A. Auer, F. Neese, J. Chem. Theory Comput. 13, 554 (2017)

----- AuxC basis set information -----
Your calculation utilizes the AutoAux generation procedure.
  G. L. Stoychev, A. A. Auer, F. Neese, J. Chem. Theory Comput. 13, 554 (2017)

----- AuxJK basis set information -----
Your calculation utilizes the AutoAux generation procedure.
  G. L. Stoychev, A. A. Auer, F. Neese, J. Chem. Theory Comput. 13, 554 (2017)

================================================================================
                                        WARNINGS
                       Please study these warnings very carefully!
================================================================================


INFO   : the flag for use of the SHARK integral package has been found!

================================================================================
                                       INPUT FILE
================================================================================
NAME = rho.inp
|  1> !CASSCF  DKH DKH-def2-TZVPP  RIJCOSX NoSFitting VeryTightSCF autoaux moread SlowConv
|  2> %moinp "orb.gbw"
|  3> %pal
|  4> nprocs 10
|  5> end
|  6> %maxcore 4000
|  7> # swap
|  8> %scf
|  9>  Rotate
| 10>   { 20, 18 }
| 11>  end
| 12> end
| 13> #
| 14> %rel
| 15>  picturechange 2
| 16> end
| 17> %casscf
| 18>  nel  7
| 19>  norb 5
| 20>  mult 4,2
| 21>  nroots 10,40
| 22>  maxiter 100
| 23>  ActOrbs dOrbs
| 24>  rel
| 25>   printlevel 3
| 26>   dosoc true
| 27>   gtensor true
| 28>   quad true
| 29>  end
| 30> end
| 31> * xyzfile 2 4 geo.xyz *
| 32> 
| 33>                          ****END OF INPUT****
================================================================================

                       ****************************
                       * Single Point Calculation *
                       ****************************

---------------------------------
CARTESIAN COORDINATES (ANGSTROEM)
---------------------------------
  Co    -0.000000   -0.000094    0.000039
  N      1.982893   -0.000014   -0.000002
  H      2.386455    0.460488   -0.833853
  H      2.386606    0.491832    0.815670
  H      2.386574   -0.952352    0.018045
  N     -1.982893   -0.000002    0.000013
  H     -2.386454    0.952382   -0.018399
  H     -2.386614   -0.492086   -0.815512
  H     -2.386567   -0.460154    0.834000

----------------------------
CARTESIAN COORDINATES (A.U.)
----------------------------
  NO LB      ZA    FRAG     MASS         X           Y           Z
   0 Co   27.0000    0    58.930   -0.000000   -0.000178    0.000074
   1 N     7.0000    0    14.007    3.747125   -0.000026   -0.000003
   2 H     1.0000    0     1.008    4.509746    0.870196   -1.575754
   3 H     1.0000    0     1.008    4.510032    0.929428    1.541393
   4 H     1.0000    0     1.008    4.509971   -1.799685    0.034100
   5 N     7.0000    0    14.007   -3.747124   -0.000003    0.000024
   6 H     1.0000    0     1.008   -4.509744    1.799741   -0.034770
   7 H     1.0000    0     1.008   -4.510046   -0.929908   -1.541094
   8 H     1.0000    0     1.008   -4.509959   -0.869566    1.576031

--------------------------------
INTERNAL COORDINATES (ANGSTROEM)
--------------------------------
 Co     0   0   0     0.000000000000     0.00000000     0.00000000
 N      1   0   0     1.982893013537     0.00000000     0.00000000
 H      2   1   0     1.034519992329   112.96262747     0.00000000
 H      2   1   3     1.034513086525   112.96989453   120.00190068
 H      2   1   3     1.034520380448   112.96526783   240.00446046
 N      1   2   3     1.982892746793   179.99463507   320.37013448
 H      6   1   2     1.034521491674   112.96304346   339.64652545
 H      6   1   2     1.034513406867   112.96945493    99.64708374
 H      6   1   2     1.034518465822   112.96530067   219.65072629

---------------------------
INTERNAL COORDINATES (A.U.)
---------------------------
 Co     0   0   0     0.000000000000     0.00000000     0.00000000
 N      1   0   0     3.747124748450     0.00000000     0.00000000
 H      2   1   0     1.954959465568   112.96262747     0.00000000
 H      2   1   3     1.954946415490   112.96989453   120.00190068
 H      2   1   3     1.954960199006   112.96526783   240.00446046
 N      1   2   3     3.747124244378   179.99463507   320.37013448
 H      6   1   2     1.954962298920   112.96304346   339.64652545
 H      6   1   2     1.954947020849   112.96945493    99.64708374
 H      6   1   2     1.954956580888   112.96530067   219.65072629

---------------------
BASIS SET INFORMATION
---------------------
There are 3 groups of distinct atoms

 Group   1 Type Co  : 17s12p7d2f1g contracted to 10s7p4d2f1g pattern {8111111111/6111111/4111/11/1}
 Group   2 Type N   : 11s6p2d1f contracted to 6s3p2d1f pattern {611111/411/11/1}
 Group   3 Type H   : 5s2p1d contracted to 3s2p1d pattern {311/11/1}

Atom   0Co   basis set group =>   1
Atom   1N    basis set group =>   2
Atom   2H    basis set group =>   3
Atom   3H    basis set group =>   3
Atom   4H    basis set group =>   3
Atom   5N    basis set group =>   2
Atom   6H    basis set group =>   3
Atom   7H    basis set group =>   3
Atom   8H    basis set group =>   3
---------------------------------
AUXILIARY/J BASIS SET INFORMATION
---------------------------------
There are 3 groups of distinct atoms

 Group   1 Type Co  : 22s18p17d17f16g6h3i contracted to 22s18p17d17f16g6h3i pattern {1111111111111111111111/111111111111111111/11111111111111111/11111111111111111/1111111111111111/111111/111}
 Group   2 Type N   : 16s13p12d7f3g contracted to 16s13p12d7f3g pattern {1111111111111111/1111111111111/111111111111/1111111/111}
 Group   3 Type H   : 11s4p3d2f contracted to 11s4p3d2f pattern {11111111111/1111/111/11}

Atom   0Co   basis set group =>   1
Atom   1N    basis set group =>   2
Atom   2H    basis set group =>   3
Atom   3H    basis set group =>   3
Atom   4H    basis set group =>   3
Atom   5N    basis set group =>   2
Atom   6H    basis set group =>   3
Atom   7H    basis set group =>   3
Atom   8H    basis set group =>   3
---------------------------------
AUXILIARY/C BASIS SET INFORMATION
---------------------------------
There are 3 groups of distinct atoms

 Group   1 Type Co  : 22s18p17d17f16g6h3i contracted to 22s18p17d17f16g6h3i pattern {1111111111111111111111/111111111111111111/11111111111111111/11111111111111111/1111111111111111/111111/111}
 Group   2 Type N   : 16s13p12d7f3g contracted to 16s13p12d7f3g pattern {1111111111111111/1111111111111/111111111111/1111111/111}
 Group   3 Type H   : 11s4p3d2f contracted to 11s4p3d2f pattern {11111111111/1111/111/11}

Atom   0Co   basis set group =>   1
Atom   1N    basis set group =>   2
Atom   2H    basis set group =>   3
Atom   3H    basis set group =>   3
Atom   4H    basis set group =>   3
Atom   5N    basis set group =>   2
Atom   6H    basis set group =>   3
Atom   7H    basis set group =>   3
Atom   8H    basis set group =>   3
----------------------------------
AUXILIARY/JK BASIS SET INFORMATION
----------------------------------
There are 3 groups of distinct atoms

 Group   1 Type Co  : 22s18p17d17f16g6h3i contracted to 22s18p17d17f16g6h3i pattern {1111111111111111111111/111111111111111111/11111111111111111/11111111111111111/1111111111111111/111111/111}
 Group   2 Type N   : 16s13p12d7f3g contracted to 16s13p12d7f3g pattern {1111111111111111/1111111111111/111111111111/1111111/111}
 Group   3 Type H   : 11s4p3d2f contracted to 11s4p3d2f pattern {11111111111/1111/111/11}

Atom   0Co   basis set group =>   1
Atom   1N    basis set group =>   2
Atom   2H    basis set group =>   3
Atom   3H    basis set group =>   3
Atom   4H    basis set group =>   3
Atom   5N    basis set group =>   2
Atom   6H    basis set group =>   3
Atom   7H    basis set group =>   3
Atom   8H    basis set group =>   3


           ************************************************************
           *        Program running with 10 parallel MPI-processes    *
           *              working on a common directory               *
           ************************************************************
------------------------------------------------------------------------------
                           ORCA GTO INTEGRAL CALCULATION
                           -- RI-GTO INTEGRALS CHOSEN --
------------------------------------------------------------------------------
------------------------------------------------------------------------------
                   ___                                                        
                  /   \      - P O W E R E D   B Y -                         
                 /     \                                                     
                 |  |  |   _    _      __       _____    __    __             
                 |  |  |  | |  | |    /  \     |  _  \  |  |  /  |          
                  \  \/   | |  | |   /    \    | | | |  |  | /  /          
                 / \  \   | |__| |  /  /\  \   | |_| |  |  |/  /          
                |  |  |   |  __  | /  /__\  \  |    /   |      \           
                |  |  |   | |  | | |   __   |  |    \   |  |\   \          
                \     /   | |  | | |  |  |  |  | |\  \  |  | \   \       
                 \___/    |_|  |_| |__|  |__|  |_| \__\ |__|  \__/        
                                                                              
                      - O R C A' S   B I G   F R I E N D -                    
                                      &                                       
                       - I N T E G R A L  F E E D E R -                       
                                                                              
 v1 FN, 2020, v2 2021                                                         
------------------------------------------------------------------------------


Reading SHARK input file rho.SHARKINP.tmp ... ok
----------------------
SHARK INTEGRAL PACKAGE
----------------------

Number of atoms                             ...      9
Number of basis functions                   ...    222
Number of shells                            ...     84
Maximum angular momentum                    ...      4
Integral batch strategy                     ... SHARK/LIBINT Hybrid
RI-J (if used) integral strategy            ... SPLIT-RIJ (Revised 2003 algorithm where possible)
Printlevel                                  ...      1
Contraction scheme used                     ... SEGMENTED contraction
Coulomb Range Separation                    ... NOT USED
Exchange Range Separation                   ... NOT USED
Finite Nucleus Model                        ... NOT USED
Auxiliary Coulomb fitting basis             ... AVAILABLE
   # of basis functions in Aux-J            ...   1223
   # of shells in Aux-J                     ...    321
   Maximum angular momentum in Aux-J        ...      6
Auxiliary J/K fitting basis                 ... AVAILABLE
   # of basis functions in Aux-JK           ...   1223
   # of shells in Aux-JK                    ...    321
   Maximum angular momentum in Aux-JK       ...      6
Auxiliary Correlation fitting basis         ... AVAILABLE
   # of basis functions in Aux-C            ...   1223
   # of shells in Aux-C                     ...    321
   Maximum angular momentum in Aux-C        ...      6
Auxiliary 'external' fitting basis          ... NOT available
Integral threshold                          ...     1.000000e-12
Primitive cut-off                           ...     1.000000e-14
Primitive pair pre-selection threshold      ...     1.000000e-14

Calculating pre-screening integrals         ... done (  0.0 sec) Dimension = 84
Organizing shell pair data                  ... done (  0.0 sec)
Shell pair information
Total number of shell pairs                 ...      3570
Shell pairs after pre-screening             ...      3277
Total number of primitive shell pairs       ...      8237
Primitive shell pairs kept                  ...      6408
          la=0 lb=0:    736 shell pairs
          la=1 lb=0:    924 shell pairs
          la=1 lb=1:    310 shell pairs
          la=2 lb=0:    512 shell pairs
          la=2 lb=1:    318 shell pairs
          la=2 lb=2:     89 shell pairs
          la=3 lb=0:    144 shell pairs
          la=3 lb=1:     94 shell pairs
          la=3 lb=2:     56 shell pairs
          la=3 lb=3:     10 shell pairs
          la=4 lb=0:     40 shell pairs
          la=4 lb=1:     25 shell pairs
          la=4 lb=2:     14 shell pairs
          la=4 lb=3:      4 shell pairs
          la=4 lb=4:      1 shell pairs

Calculating one electron integrals          ... done (  0.0 sec)
Calculating RI/J V-Matrix + Cholesky decomp.... done (  0.1 sec)
Calculating RI/JK V-Matrix + Cholesky decomp... done (  0.1 sec)
Calculating RI/C V-Matrix + Cholesky decomp.... done (  0.1 sec)
Calculating Nuclear repulsion               ... done (  0.0 sec) ENN=    170.116936849762 Eh

SHARK setup successfully completed in   0.5 seconds

Maximum memory used throughout the entire GTOINT-calculation: 37.2 MB


           ************************************************************
           *        Program running with 10 parallel MPI-processes    *
           *              working on a common directory               *
           ************************************************************
------------------------------------------------------------------------------
                          ORCA RELATIVISTIC HAMILTONIAN
------------------------------------------------------------------------------

Relativistic Method            ... DKH
Order of DKH treatment         ...   2
Treatment of potential         ... V(e,N)
Eps parameter for DKH          ...   0.00000000010000
Nucleus model                  ... Point Nucleus
Speed of light used            ... 137.03598950000000


            ************************************************
            *        DOUGLAS-KROLL-HESS HAMILTONIAN        *
            *   Programmed by FN according to literature   *
            *        procedures. Special thanks to         *
            *       B.A. Hess, M. Reiher and A. Wolf       *
            *     University Erlangen-Nuernberg/Bonn       *
            ************************************************

Uncontracting the basis (first version)        ... done
Number of contracted basis functions           ...  222
Number of uncontracted basis functions         ...  299
Initializing the DKH file                      ... done
Calculating the relativistic integrals         ... done
Storing DKH matrices                           ... done
Code used for DKH trafo                        ... ORCA
Computing the DKH transformation               ... done
Storing the transformation variables           ... done
Transforming V and pVp to p**2 space           ... done
First transformation of V and pVp              ... done
Second transformation of Veff                  ... done
Adding kinetic energy                          ... done
Back transformation of Veff to r-space         ... done
Recovering DKH matrices                        ... done
Recontracting the H-matrix (first version)     ... done
Computing the DKH correction to the H-matrix   ... done
Reading the original H-matrix                  ... done
Adding DKH correction to the H-matrix          ... done
Storing the new modified H-matrix              ... done

Maximum memory used throughout the entire REL-calculation: 69.0 MB


           ************************************************************
           *        Program running with 10 parallel MPI-processes    *
           *              working on a common directory               *
           ************************************************************
-------------------------------------------------------------------------------
                                 ORCA SCF
-------------------------------------------------------------------------------

------------
SCF SETTINGS
------------
Hamiltonian:
 Ab initio Hamiltonian  Method          .... Hartree-Fock(GTOs)
 RI-approximation to the Coulomb term is turned on
   Number of AuxJ basis functions       .... 1223
   RIJ-COSX (HFX calculated with COS-X)).... on

Relativistic Settings:
 Scalar relativistic method             .... Douglas-Kroll-Hess
 Order of DKH procedure    Order        ....    2
 Mode of DKH-treatment                  .... V=V(e,N)
 Speed of light used       Velit        ....       137.035989
 Cutoff-constant           Eps          ....            1e-10 


General Settings:
 Integral files         IntName         .... rho
 Hartree-Fock type      HFTyp           .... CASSCF
 Total Charge           Charge          ....    2
 Multiplicity           Mult            ....    4
 Number of Electrons    NEL             ....   45
 Basis Dimension        Dim             ....  222
 Nuclear Repulsion      ENuc            ....    170.1169368498 Eh


Diagonalization of the overlap matrix:
Smallest eigenvalue                        ... 5.875e-04
Time for diagonalization                   ...    0.011 sec
Threshold for overlap eigenvalues          ... 1.000e-08
Number of eigenvalues below threshold      ... 0
Time for construction of square roots      ...    0.005 sec
Total time needed                          ...    0.017 sec

---------------------
INITIAL GUESS: MOREAD
---------------------
Guess MOs are being read from file: orb.gbw
Input Geometry matches current geometry (good)
Atom 0: N(Shells)= 24 and 18 - projection required
Input basis set needs projection
NBasis(read)= 210
NBasis(calc)= 222
Basis set overlap was calculated
Using GuessMode=CMatrix for the initial guess
Initial orthogonal set was formed
CASSCF - fitting 2 shells:
   closed-shell contains  19 orbitals (  0 ...  18)
   active space contains   5 orbitals ( 19 ...  23)
Virtual orbitals were projected
Gram-Schmidt orthogonalization of all MOs with pivot on actives
-----------------
ORBITAL ROTATIONS
-----------------
  Rotation  20(0)   18(0) cos(t)= 0.000000  sin(t)= 1.000000
  Orbital Energies were swapped
Initial density was built
Canonicalizing active space vectors CAS(7,5) {19-23} C(222,222) Cact Ract BOVL(210,222) COVL Diag BackTrafo Restore
Active space vectors have been canonicalized
                      ------------------
                      INITIAL GUESS DONE (   0.1 sec)
                      ------------------
--------------------
COSX GRID GENERATION
--------------------

GRIDX 1
-------
General Integration Accuracy     IntAcc      ... 3.816
Radial Grid Type                 RadialGrid  ... OptM3 with GC (2021)
Angular Grid (max. ang.)         AngularGrid ... 1 (Lebedev-50)
Angular grid pruning method      GridPruning ... 4 (adaptive)
Weight generation scheme         WeightScheme... Becke
Basis function cutoff            BFCut       ... 1.0000e-12
Integration weight cutoff        WCut        ... 1.0000e-14
Angular grids for H and He will be reduced by one unit
Partially contracted basis set               ... on
Rotationally invariant grid construction     ... off

Total number of grid points                  ...     5370
Total number of batches                      ...       89
Average number of points per batch           ...       60
Average number of grid points per atom       ...      597

GRIDX 2
-------
General Integration Accuracy     IntAcc      ... 4.020
Radial Grid Type                 RadialGrid  ... OptM3 with GC (2021)
Angular Grid (max. ang.)         AngularGrid ... 2 (Lebedev-110)
Angular grid pruning method      GridPruning ... 4 (adaptive)
Weight generation scheme         WeightScheme... Becke
Basis function cutoff            BFCut       ... 1.0000e-12
Integration weight cutoff        WCut        ... 1.0000e-14
Angular grids for H and He will be reduced by one unit
Partially contracted basis set               ... on
Rotationally invariant grid construction     ... off

Total number of grid points                  ...    11084
Total number of batches                      ...      178
Average number of points per batch           ...       62
Average number of grid points per atom       ...     1232

GRIDX 3
-------
General Integration Accuracy     IntAcc      ... 4.338
Radial Grid Type                 RadialGrid  ... OptM3 with GC (2021)
Angular Grid (max. ang.)         AngularGrid ... 3 (Lebedev-194)
Angular grid pruning method      GridPruning ... 4 (adaptive)
Weight generation scheme         WeightScheme... Becke
Basis function cutoff            BFCut       ... 1.0000e-12
Integration weight cutoff        WCut        ... 1.0000e-14
Angular grids for H and He will be reduced by one unit
Partially contracted basis set               ... on
Rotationally invariant grid construction     ... off

Total number of grid points                  ...    24482
Total number of batches                      ...      389
Average number of points per batch           ...       62
Average number of grid points per atom       ...     2720

Time for X-Grid setup             =    0.122 sec



 ... the calculation is a CASSCF calculation -I'm leaving here GOOD LUCK!!!



           ************************************************************
           *        Program running with 10 parallel MPI-processes    *
           *              working on a common directory               *
           ************************************************************
-------------------------------------------------------------------------------
                              ORCA-CASSCF
-------------------------------------------------------------------------------

Setting up the integral package       ... done
Setting up the integral package (RI)  ... done
Building the CAS space                ... done (10 configurations for Mult=4)
Building the CAS space                ... done (30 configurations for Mult=2)

SYSTEM-SPECIFIC SETTINGS:
Number of active electrons          ...    7
Number of active orbitals           ...    5
Total number of electrons           ...   45
Total number of orbitals            ...  222
Total number aux. functions         ... 1223

Determined orbital ranges:
   Internal       0 -   18 (  19 orbitals)
   Active        19 -   23 (   5 orbitals)
   External      24 -  221 ( 198 orbitals)
Number of rotation parameters      ...   4847

CI-STEP:
CI strategy                         ... General CI
Number of multiplicity blocks       ...    2
BLOCK  1 WEIGHT=   0.5000
  Multiplicity                      ...    4
  #(Configurations)                 ...   10
  #(CSFs)                           ...   10
  #(Roots)                          ...   10
    ROOT=0 WEIGHT=    0.050000
    ROOT=1 WEIGHT=    0.050000
    ROOT=2 WEIGHT=    0.050000
    ROOT=3 WEIGHT=    0.050000
    ROOT=4 WEIGHT=    0.050000
    ROOT=5 WEIGHT=    0.050000
    ROOT=6 WEIGHT=    0.050000
    ROOT=7 WEIGHT=    0.050000
    ROOT=8 WEIGHT=    0.050000
    ROOT=9 WEIGHT=    0.050000

BLOCK  2 WEIGHT=   0.5000
  Multiplicity                      ...    2
  #(Configurations)                 ...   30
  #(CSFs)                           ...   40
  #(Roots)                          ...   40
    ROOT=0 WEIGHT=    0.012500
    ROOT=1 WEIGHT=    0.012500
    ROOT=2 WEIGHT=    0.012500
    ROOT=3 WEIGHT=    0.012500
    ROOT=4 WEIGHT=    0.012500
    ROOT=5 WEIGHT=    0.012500
    ROOT=6 WEIGHT=    0.012500
    ROOT=7 WEIGHT=    0.012500
    ROOT=8 WEIGHT=    0.012500
    ROOT=9 WEIGHT=    0.012500
    ROOT=10 WEIGHT=    0.012500
    ROOT=11 WEIGHT=    0.012500
    ROOT=12 WEIGHT=    0.012500
    ROOT=13 WEIGHT=    0.012500
    ROOT=14 WEIGHT=    0.012500
    ROOT=15 WEIGHT=    0.012500
    ROOT=16 WEIGHT=    0.012500
    ROOT=17 WEIGHT=    0.012500
    ROOT=18 WEIGHT=    0.012500
    ROOT=19 WEIGHT=    0.012500
    ROOT=20 WEIGHT=    0.012500
    ROOT=21 WEIGHT=    0.012500
    ROOT=22 WEIGHT=    0.012500
    ROOT=23 WEIGHT=    0.012500
    ROOT=24 WEIGHT=    0.012500
    ROOT=25 WEIGHT=    0.012500
    ROOT=26 WEIGHT=    0.012500
    ROOT=27 WEIGHT=    0.012500
    ROOT=28 WEIGHT=    0.012500
    ROOT=29 WEIGHT=    0.012500
    ROOT=30 WEIGHT=    0.012500
    ROOT=31 WEIGHT=    0.012500
    ROOT=32 WEIGHT=    0.012500
    ROOT=33 WEIGHT=    0.012500
    ROOT=34 WEIGHT=    0.012500
    ROOT=35 WEIGHT=    0.012500
    ROOT=36 WEIGHT=    0.012500
    ROOT=37 WEIGHT=    0.012500
    ROOT=38 WEIGHT=    0.012500
    ROOT=39 WEIGHT=    0.012500

  PrintLevel                        ...    1
  N(GuessMat)                       ...       512
  MaxDim(CI)                        ...        10
  MaxIter(CI)                       ...        64
  Energy Tolerance CI               ...  1.00e-09
  Residual Tolerance CI             ...  1.00e-09
  Shift(CI)                         ...  1.00e-04

INTEGRAL-TRANSFORMATION-STEP:
  Algorithm                         ... RI-MO

ORBITAL-IMPROVEMENT-STEP:
  Algorithm                         ... SuperCI
  Default Parametrization           ... CAYLEY
  Act-Act rotations                 ... depends on algorithm used
  FreezeIE                          ... 95.00% of ||g||
  Until reaching FreezeIE rotations with active orbitals are damped. 

  Approx. Fock at                   ... 0.000000e+00 density convergence
  Level shift                       ... energy gap dependent. Minimum=1.000
  Switch step at gradient           ...  3.00e-02 
  Switch step at iteration          ...        50   
  Switch step to                    ... DIIS    

SCF-SETTINGS:
  Incremental                       ... off
  RIJCOSX approximation             ... on
  UseFinalGrid                      ... on
  RI-JK approximation               ... off
  AO integral handling              ... DIRECT
  Integral Neglect Thresh           ...  1.00e-12
  Primitive cutoff TCut             ...  1.00e-14
  Energy convergence tolerance      ...  1.00e-08
  Orbital gradient convergence      ...  1.00e-05
  Max. number of iterations         ...       100  


PROPERTIES-SETTINGS:
  Spin orbit coupling               ... true
  GTensor                           ... true

FINAL ORBITALS:
  Active   Orbitals                 ... d-orbitals 
  Internal Orbitals                 ... canonical 
  External Orbitals                 ... canonical 

------------------
CAS-SCF ITERATIONS
------------------


MACRO-ITERATION   1: 
   --- Canonicalize Internal Space
   --- Canonicalize External Space
   --- Inactive Energy E0 = -1476.59646008 Eh
CI-ITERATION   0: 
 -1502.741152025   0.000000000000 (    0.00)
 -1502.740343036   0.000000000000
 -1502.733731471   0.000000000000
 -1502.729687229   0.000000000000
 -1502.729583973   0.000000000000
 -1502.720167366   0.000000000000
 -1502.719266410   0.000000000000
 -1502.665991486   0.000000000000
 -1502.641706772   0.000000000000
 -1502.641651764   0.000000000000
   CI-PROBLEM SOLVED
   DENSITIES MADE
CI-ITERATION   0: 
 -1502.668147953   0.000000000000 (    0.00)
 -1502.667380668   0.000000000000
 -1502.658368177   0.000000000000
 -1502.658312495   0.000000000000
 -1502.657261144   0.000000000000
 -1502.657202437   0.000000000000
 -1502.652905319   0.000000000000
 -1502.643841448   0.000000000000
 -1502.643817498   0.000000000000
 -1502.642475085   0.000000000000
 -1502.642427817   0.000000000000
 -1502.640134108   0.000000000000
 -1502.627758075   0.000000000000
 -1502.627531447   0.000000000000
 -1502.626717219   0.000000000000
 -1502.626708965   0.000000000000
 -1502.622314022   0.000000000000
 -1502.622288470   0.000000000000
 -1502.618980779   0.000000000000
 -1502.618934641   0.000000000000
 -1502.618588636   0.000000000000
 -1502.618377941   0.000000000000
 -1502.614595681   0.000000000000
 -1502.610195258   0.000000000000
 -1502.610139161   0.000000000000
 -1502.607120337   0.000000000000
 -1502.603775277   0.000000000000
 -1502.603749290   0.000000000000
 -1502.552044271   0.000000000000
 -1502.548333719   0.000000000000
 -1502.548271458   0.000000000000
 -1502.541916814   0.000000000000
 -1502.541856428   0.000000000000
 -1502.538908194   0.000000000000
 -1502.538715217   0.000000000000
 -1502.452198121   0.000000000000
 -1502.445780936   0.000000000000
 -1502.445588802   0.000000000000
 -1502.422306804   0.000000000000
 -1502.422241419   0.000000000000
   CI-PROBLEM SOLVED
   DENSITIES MADE

                 <<<<<<<<<<<<<<<<<<INITIAL CI STATE CHECK>>>>>>>>>>>>>>>>>>

BLOCK  1 MULT= 4 NROOTS=10 
ROOT   0:  E=   -1502.7411520246 Eh
      0.78926 [     5]: 12211
      0.20147 [     6]: 21112
      0.00476 [     3]: 12112
ROOT   1:  E=   -1502.7403430363 Eh  0.022 eV    177.6 cm**-1
      0.35508 [     9]: 22111
      0.31615 [     1]: 11212
      0.17375 [     8]: 21211
      0.15487 [     3]: 12112
ROOT   2:  E=   -1502.7337314706 Eh  0.202 eV   1628.6 cm**-1
      0.78443 [     6]: 21112
      0.18857 [     5]: 12211
      0.01384 [     8]: 21211
      0.00669 [     9]: 22111
      0.00410 [     3]: 12112
ROOT   3:  E=   -1502.7296872293 Eh  0.312 eV   2516.2 cm**-1
      0.33095 [     1]: 11212
      0.29448 [     9]: 22111
      0.11385 [     2]: 11221
      0.09480 [     0]: 11122
      0.06833 [     3]: 12112
      0.05502 [     8]: 21211
      0.04214 [     4]: 12121
ROOT   4:  E=   -1502.7295839729 Eh  0.315 eV   2538.9 cm**-1
      0.31684 [     3]: 12112
      0.31639 [     8]: 21211
      0.10751 [     4]: 12121
      0.09478 [     7]: 21121
      0.06200 [     9]: 22111
      0.05884 [     1]: 11212
      0.03906 [     2]: 11221
      0.00379 [     6]: 21112
ROOT   5:  E=   -1502.7201673657 Eh  0.571 eV   4605.6 cm**-1
      0.49839 [     7]: 21121
      0.33560 [     4]: 12121
      0.16229 [     2]: 11221
ROOT   6:  E=   -1502.7192664099 Eh  0.596 eV   4803.3 cm**-1
      0.50453 [     0]: 11122
      0.33123 [     2]: 11221
      0.15972 [     4]: 12121
ROOT   7:  E=   -1502.6659914857 Eh  2.045 eV  16495.8 cm**-1
      0.32567 [     3]: 12112
      0.32397 [     8]: 21211
      0.15946 [     1]: 11212
      0.15865 [     9]: 22111
      0.02189 [     5]: 12211
      0.01014 [     6]: 21112
ROOT   8:  E=   -1502.6417067724 Eh  2.706 eV  21825.7 cm**-1
      0.39918 [     0]: 11122
      0.22438 [     2]: 11221
      0.12841 [     4]: 12121
      0.11653 [     1]: 11212
      0.10880 [     9]: 22111
      0.01156 [     8]: 21211
      0.01069 [     3]: 12112
ROOT   9:  E=   -1502.6416517636 Eh  2.708 eV  21837.8 cm**-1
      0.40565 [     7]: 21121
      0.22603 [     4]: 12121
      0.12904 [     2]: 11221
      0.11286 [     3]: 12112
      0.10227 [     8]: 21211
      0.01190 [     1]: 11212
      0.01153 [     9]: 22111

BLOCK  2 MULT= 2 NROOTS=40 
ROOT   0:  E=   -1502.6681479531 Eh
      0.45510 [    28]: 22201
      0.26627 [    25]: 22102
      0.12823 [    20]: 21202
      0.06273 [     3]: 02221
      0.02880 [    14]: 20122
      0.01384 [    17]: 21022
      0.00706 [     7]: 11221
      0.00606 [    27]: 22120
      0.00477 [    24]: 22021
      0.00427 [     5]: 11122
      0.00369 [    19]: 21121
      0.00344 [    10]: 12121
      0.00292 [    22]: 21220
ROOT   1:  E=   -1502.6673806682 Eh  0.021 eV    168.4 cm**-1
      0.43812 [    11]: 12202
      0.27256 [    20]: 21202
      0.13208 [    25]: 22102
      0.06639 [    13]: 12220
      0.03000 [    17]: 21022
      0.01457 [    14]: 20122
      0.00727 [    10]: 12121
      0.00626 [     0]: 01222
      0.00503 [    19]: 21121
      0.00416 [     4]: 10222
      0.00386 [     5]: 11122
      0.00358 [     7]: 11221
      0.00306 [     1]: 02122
      0.00269 [     9]: 12112
ROOT   2:  E=   -1502.6583681766 Eh  0.266 eV   2146.4 cm**-1
      0.20100 [    12]: 12211
      0.14797 [    21]: 21211
      0.12900 [     9]: 12112
      0.09559 [    11]: 12202
      0.07591 [    20]: 21202
      0.05181 [    18]: 21112
      0.04166 [    15]: 20212
      0.03945 [    25]: 22102
      0.03915 [    23]: 22012
      0.03281 [    19]: 21121
      0.02390 [     0]: 01222
      0.02260 [     6]: 11212
      0.02259 [    10]: 12121
      0.01403 [     4]: 10222
      0.01231 [    26]: 22111
      0.01162 [     1]: 02122
      0.01148 [     7]: 11221
      0.00712 [    29]: 22210
      0.00612 [     2]: 02212
      0.00544 [     8]: 12022
      0.00487 [     5]: 11122
ROOT   3:  E=   -1502.6583124952 Eh  0.268 eV   2158.6 cm**-1
      0.20203 [    26]: 22111
      0.09718 [    29]: 22210
      0.09416 [    28]: 22201
      0.08766 [     2]: 02212
      0.08471 [    18]: 21112
      0.08090 [    25]: 22102
      0.07926 [     6]: 11212
      0.03864 [    20]: 21202
      0.03840 [    21]: 21211
      0.03440 [     5]: 11122
      0.02846 [     7]: 11221
      0.02275 [    23]: 22012
      0.01940 [    15]: 20212
      0.01532 [    12]: 12211
      0.01448 [    27]: 22120
      0.01393 [    10]: 12121
      0.01265 [    24]: 22021
      0.00807 [    16]: 20221
      0.00758 [    22]: 21220
      0.00562 [     9]: 12112
      0.00509 [     1]: 02122
ROOT   4:  E=   -1502.6572611444 Eh  0.296 eV   2389.4 cm**-1
      0.55089 [    12]: 12211
      0.30817 [    18]: 21112
      0.03187 [    10]: 12121
      0.01720 [    22]: 21220
      0.01443 [     5]: 11122
      0.01057 [    16]: 20221
      0.01002 [    19]: 21121
      0.00839 [    24]: 22021
      0.00678 [     0]: 01222
      0.00589 [     7]: 11221
      0.00576 [     8]: 12022
      0.00482 [    20]: 21202
      0.00417 [     9]: 12112
      0.00367 [    26]: 22111
      0.00345 [    11]: 12202
      0.00342 [    21]: 21211
ROOT   5:  E=   -1502.6572024367 Eh  0.298 eV   2402.3 cm**-1
      0.34084 [     6]: 11212
      0.23532 [    26]: 22111
      0.16338 [     9]: 12112
      0.11824 [    21]: 21211
      0.03799 [     7]: 11221
      0.02825 [    27]: 22120
      0.01657 [     1]: 02122
      0.01185 [    19]: 21121
      0.00586 [     5]: 11122
      0.00493 [    22]: 21220
      0.00481 [    10]: 12121
      0.00462 [     8]: 12022
      0.00446 [     4]: 10222
      0.00377 [    24]: 22021
      0.00327 [    18]: 21112
      0.00324 [     2]: 02212
      0.00286 [     0]: 01222
      0.00268 [    25]: 22102
      0.00259 [    29]: 22210
ROOT   6:  E=   -1502.6529053194 Eh  0.415 eV   3345.4 cm**-1
      0.25235 [    26]: 22111
      0.23096 [     6]: 11212
      0.12489 [    21]: 21211
      0.11174 [     9]: 12112
      0.05446 [     7]: 11221
      0.05158 [    19]: 21121
      0.02714 [     1]: 02122
      0.02711 [     8]: 12022
      0.02710 [     5]: 11122
      0.02622 [    27]: 22120
      0.02533 [     4]: 10222
      0.01243 [    16]: 20221
      0.01167 [    24]: 22021
      0.00737 [    10]: 12121
      0.00346 [     0]: 01222
      0.00339 [    22]: 21220
ROOT   7:  E=   -1502.6438414483 Eh  0.661 eV   5334.7 cm**-1
      0.31473 [    12]: 12211
      0.12635 [     9]: 12112
      0.12403 [    21]: 21211
      0.05683 [    19]: 21121
      0.05000 [    11]: 12202
      0.03867 [    29]: 22210
      0.03327 [     2]: 02212
      0.03246 [    25]: 22102
      0.03142 [    14]: 20122
      0.03099 [    20]: 21202
      0.03005 [    17]: 21022
      0.01959 [    10]: 12121
      0.01909 [     5]: 11122
      0.01760 [     0]: 01222
      0.01378 [    24]: 22021
      0.01300 [     7]: 11221
      0.00927 [     4]: 10222
      0.00911 [     1]: 02122
      0.00817 [    16]: 20221
      0.00669 [    13]: 12220
      0.00416 [    26]: 22111
      0.00349 [     8]: 12022
ROOT   8:  E=   -1502.6438174980 Eh  0.662 eV   5339.9 cm**-1
      0.16497 [    29]: 22210
      0.14471 [     2]: 02212
      0.12761 [     6]: 11212
      0.11849 [    26]: 22111
      0.07206 [    12]: 12211
      0.05845 [     5]: 11122
      0.05001 [    28]: 22201
      0.03147 [    20]: 21202
      0.03143 [    17]: 21022
      0.03025 [    14]: 20122
      0.03023 [    25]: 22102
      0.02362 [    19]: 21121
      0.01899 [    27]: 22120
      0.01854 [     7]: 11221
      0.01330 [    10]: 12121
      0.01230 [     4]: 10222
      0.01114 [    22]: 21220
      0.01078 [    24]: 22021
      0.00796 [     3]: 02221
      0.00601 [     8]: 12022
      0.00429 [     9]: 12112
      0.00397 [    16]: 20221
      0.00277 [    21]: 21211
ROOT   9:  E=   -1502.6424750847 Eh  0.699 eV   5634.5 cm**-1
      0.12478 [    18]: 21112
      0.11450 [    13]: 12220
      0.10769 [    23]: 22012
      0.10635 [    15]: 20212
      0.08702 [    21]: 21211
      0.07839 [     9]: 12112
      0.07518 [    10]: 12121
      0.06904 [    11]: 12202
      0.05314 [    20]: 21202
      0.04204 [     7]: 11221
      0.03721 [    12]: 12211
      0.02896 [    25]: 22102
      0.01437 [     0]: 01222
      0.01010 [     4]: 10222
      0.00951 [    26]: 22111
      0.00815 [    19]: 21121
      0.00735 [     6]: 11212
      0.00639 [     1]: 02122
      0.00537 [     8]: 12022
      0.00384 [     5]: 11122
      0.00274 [    24]: 22021
ROOT  10:  E=   -1502.6424278169 Eh  0.700 eV   5644.9 cm**-1
      0.21086 [    18]: 21112
      0.10915 [     3]: 02221
      0.08154 [     6]: 11212
      0.08057 [    26]: 22111
      0.07477 [     7]: 11221
      0.07224 [    28]: 22201
      0.06063 [    23]: 22012
      0.05951 [    15]: 20212
      0.05674 [    25]: 22102
      0.04126 [    10]: 12121
      0.03424 [    20]: 21202
      0.02118 [     2]: 02212
      0.02092 [    29]: 22210
      0.01513 [    27]: 22120
      0.00964 [    24]: 22021
      0.00935 [     9]: 12112
      0.00818 [     5]: 11122
      0.00775 [    21]: 21211
      0.00654 [    22]: 21220
      0.00459 [    16]: 20221
      0.00451 [    19]: 21121
      0.00402 [    12]: 12211
ROOT  11:  E=   -1502.6401341080 Eh  0.762 eV   6148.3 cm**-1
      0.56415 [    18]: 21112
      0.34542 [    12]: 12211
      0.02121 [     9]: 12112
      0.01978 [    21]: 21211
      0.01036 [     6]: 11212
      0.00975 [    26]: 22111
      0.00790 [     5]: 11122
      0.00388 [    16]: 20221
      0.00363 [    24]: 22021
      0.00352 [    19]: 21121
      0.00267 [    10]: 12121
ROOT  12:  E=   -1502.6277580747 Eh  1.099 eV   8864.6 cm**-1
      0.17019 [    21]: 21211
      0.12704 [    13]: 12220
      0.12098 [    19]: 21121
      0.08918 [    12]: 12211
      0.07129 [    22]: 21220
      0.04740 [     4]: 10222
      0.04569 [     8]: 12022
      0.03792 [    26]: 22111
      0.03518 [    10]: 12121
      0.03306 [     9]: 12112
      0.03252 [    23]: 22012
      0.03233 [    27]: 22120
      0.02382 [    18]: 21112
      0.02116 [    20]: 21202
      0.01825 [    15]: 20212
      0.01746 [    17]: 21022
      0.01690 [     7]: 11221
      0.01497 [    11]: 12202
      0.00954 [    25]: 22102
      0.00821 [    14]: 20122
      0.00810 [     0]: 01222
      0.00666 [    29]: 22210
      0.00383 [     1]: 02122
      0.00344 [    24]: 22021
      0.00312 [    16]: 20221
ROOT  13:  E=   -1502.6275314475 Eh  1.105 eV   8914.3 cm**-1
      0.11551 [    29]: 22210
      0.11121 [     5]: 11122
      0.09787 [    26]: 22111
      0.09739 [     3]: 02221
      0.08562 [     6]: 11212
      0.06366 [    18]: 21112
      0.05741 [     7]: 11221
      0.05568 [    16]: 20221
      0.05474 [    15]: 20212
      0.03348 [    24]: 22021
      0.03291 [    27]: 22120
      0.02838 [     1]: 02122
      0.02706 [    10]: 12121
      0.02688 [     9]: 12112
      0.01730 [    25]: 22102
      0.01600 [    22]: 21220
      0.01502 [    14]: 20122
      0.01370 [     0]: 01222
      0.01027 [    28]: 22201
      0.00865 [    20]: 21202
      0.00800 [    19]: 21121
      0.00707 [    17]: 21022
      0.00572 [     2]: 02212
      0.00553 [    12]: 12211
      0.00441 [    21]: 21211
ROOT  14:  E=   -1502.6267172190 Eh  1.127 eV   9093.0 cm**-1
      0.18926 [     2]: 02212
      0.10439 [    15]: 20212
      0.10269 [    23]: 22012
      0.10123 [    29]: 22210
      0.09082 [     9]: 12112
      0.08168 [    26]: 22111
      0.06940 [     7]: 11221
      0.05667 [     1]: 02122
      0.03995 [     6]: 11212
      0.03963 [     5]: 11122
      0.02885 [    24]: 22021
      0.02543 [    21]: 21211
      0.01132 [    27]: 22120
      0.01015 [    19]: 21121
      0.00801 [     4]: 10222
      0.00740 [    18]: 21112
      0.00598 [    10]: 12121
      0.00595 [    16]: 20221
      0.00496 [    12]: 12211
      0.00496 [     3]: 02221
      0.00340 [    14]: 20122
      0.00304 [    13]: 12220
ROOT  15:  E=   -1502.6267089649 Eh  1.128 eV   9094.8 cm**-1
      0.20757 [     9]: 12112
      0.16957 [    21]: 21211
      0.11627 [     6]: 11212
      0.07542 [     2]: 02212
      0.07499 [    10]: 12121
      0.06188 [    23]: 22012
      0.04894 [     0]: 01222
      0.03712 [    29]: 22210
      0.03427 [    19]: 21121
      0.03268 [    26]: 22111
      0.02954 [     8]: 12022
      0.02262 [    15]: 20212
      0.01453 [    12]: 12211
      0.01329 [    22]: 21220
      0.01319 [     5]: 11122
      0.01094 [     4]: 10222
      0.00971 [    16]: 20221
      0.00718 [    18]: 21112
      0.00611 [     1]: 02122
      0.00457 [     3]: 02221
ROOT  16:  E=   -1502.6223140222 Eh  1.247 eV  10059.4 cm**-1
      0.21675 [     7]: 11221
      0.16940 [     5]: 11122
      0.13397 [     3]: 02221
      0.10729 [    10]: 12121
      0.08387 [    18]: 21112
      0.07925 [    27]: 22120
      0.03761 [    22]: 21220
      0.02561 [     6]: 11212
      0.02378 [    26]: 22111
      0.02301 [    15]: 20212
      0.02171 [    23]: 22012
      0.01667 [     1]: 02122
      0.00757 [    28]: 22201
      0.00705 [    14]: 20122
      0.00703 [     0]: 01222
      0.00639 [    19]: 21121
      0.00578 [     2]: 02212
      0.00572 [    29]: 22210
      0.00384 [    24]: 22021
      0.00329 [    17]: 21022
      0.00310 [     8]: 12022
      0.00309 [     4]: 10222
      0.00276 [    21]: 21211
      0.00269 [     9]: 12112
ROOT  17:  E=   -1502.6222884700 Eh  1.248 eV  10065.0 cm**-1
      0.23014 [    10]: 12121
      0.16036 [    19]: 21121
      0.11555 [     7]: 11221
      0.11195 [    13]: 12220
      0.07609 [     0]: 01222
      0.05042 [    18]: 21112
      0.04928 [    23]: 22012
      0.04866 [    15]: 20212
      0.03643 [     1]: 02122
      0.02750 [     9]: 12112
      0.02509 [    21]: 21211
      0.01225 [    22]: 21220
      0.00867 [    17]: 21022
      0.00781 [    12]: 12211
      0.00698 [     5]: 11122
      0.00611 [    11]: 12202
      0.00510 [    27]: 22120
      0.00498 [    14]: 20122
      0.00345 [     6]: 11212
      0.00335 [    26]: 22111
      0.00319 [    24]: 22021
      0.00302 [    16]: 20221
ROOT  18:  E=   -1502.6189807791 Eh  1.338 eV  10790.9 cm**-1
      0.17827 [    13]: 12220
      0.17263 [    19]: 21121
      0.09714 [    12]: 12211
      0.07518 [    15]: 20212
      0.07193 [    23]: 22012
      0.05400 [    10]: 12121
      0.05303 [    17]: 21022
      0.05131 [     9]: 12112
      0.05112 [    18]: 21112
      0.04253 [    21]: 21211
      0.03735 [     0]: 01222
      0.02223 [     7]: 11221
      0.01959 [    14]: 20122
      0.01940 [     1]: 02122
      0.01319 [     6]: 11212
      0.01149 [    26]: 22111
      0.00712 [     4]: 10222
      0.00509 [     8]: 12022
      0.00343 [    20]: 21202
      0.00308 [    22]: 21220
ROOT  19:  E=   -1502.6189346407 Eh  1.339 eV  10801.1 cm**-1
      0.12768 [    18]: 21112
      0.12331 [     7]: 11221
      0.09820 [     5]: 11122
      0.09375 [     6]: 11212
      0.09253 [     3]: 02221
      0.08176 [    26]: 22111
      0.06928 [    27]: 22120
      0.05453 [    10]: 12121
      0.03255 [    22]: 21220
      0.02888 [     2]: 02212
      0.02451 [    29]: 22210
      0.02448 [    19]: 21121
      0.02246 [    23]: 22012
      0.02122 [    14]: 20122
      0.01802 [    15]: 20212
      0.01715 [     9]: 12112
      0.01611 [    21]: 21211
      0.01557 [    24]: 22021
      0.01446 [     8]: 12022
      0.01101 [     4]: 10222
      0.00569 [    17]: 21022
      0.00285 [    16]: 20221
ROOT  20:  E=   -1502.6185886355 Eh  1.349 eV  10877.0 cm**-1
      0.13606 [    10]: 12121
      0.12177 [     5]: 11122
      0.09191 [     9]: 12112
      0.08481 [    21]: 21211
      0.06630 [    24]: 22021
      0.06580 [    13]: 12220
      0.06573 [     7]: 11221
      0.06533 [    16]: 20221
      0.04911 [    17]: 21022
      0.04287 [    19]: 21121
      0.03348 [     0]: 01222
      0.02607 [    14]: 20122
      0.02389 [    12]: 12211
      0.01874 [     4]: 10222
      0.01867 [    20]: 21202
      0.01811 [    11]: 12202
      0.01597 [     1]: 02122
      0.01393 [    22]: 21220
      0.01232 [     6]: 11212
      0.00972 [    25]: 22102
      0.00953 [    26]: 22111
      0.00660 [    27]: 22120
ROOT  21:  E=   -1502.6183779406 Eh  1.354 eV  10923.3 cm**-1
      0.15356 [     3]: 02221
      0.10520 [    19]: 21121
      0.09840 [     5]: 11122
      0.09726 [    14]: 20122
      0.06963 [     7]: 11221
      0.05163 [     8]: 12022
      0.05162 [     4]: 10222
      0.04963 [    17]: 21022
      0.04173 [     6]: 11212
      0.04042 [    26]: 22111
      0.03538 [    10]: 12121
      0.03173 [     2]: 02212
      0.03114 [    29]: 22210
      0.02178 [    25]: 22102
      0.02051 [    28]: 22201
      0.01827 [    18]: 21112
      0.01583 [     1]: 02122
      0.01099 [    20]: 21202
      0.00796 [    24]: 22021
      0.00779 [    27]: 22120
      0.00750 [     0]: 01222
      0.00534 [    21]: 21211
      0.00504 [    12]: 12211
      0.00475 [    23]: 22012
      0.00463 [    16]: 20221
      0.00462 [     9]: 12112
      0.00383 [    22]: 21220
      0.00381 [    15]: 20212
ROOT  22:  E=   -1502.6145956815 Eh  1.457 eV  11753.4 cm**-1
      0.14026 [    10]: 12121
      0.11921 [     5]: 11122
      0.08838 [    21]: 21211
      0.08408 [     9]: 12112
      0.08033 [     0]: 01222
      0.07251 [    22]: 21220
      0.05344 [    24]: 22021
      0.05309 [    16]: 20221
      0.05131 [    19]: 21121
      0.04514 [    26]: 22111
      0.04295 [    18]: 21112
      0.03923 [     6]: 11212
      0.03355 [     4]: 10222
      0.02946 [    12]: 12211
      0.02701 [     8]: 12022
      0.01662 [     7]: 11221
      0.01164 [     1]: 02122
      0.01060 [    27]: 22120
ROOT  23:  E=   -1502.6101952584 Eh  1.577 eV  12719.1 cm**-1
      0.14853 [    26]: 22111
      0.14842 [     6]: 11212
      0.13845 [    14]: 20122
      0.09729 [    17]: 21022
      0.06050 [    24]: 22021
      0.05989 [     3]: 02221
      0.05884 [    28]: 22201
      0.03809 [    16]: 20221
      0.03338 [    27]: 22120
      0.02842 [     5]: 11122
      0.02681 [    25]: 22102
      0.02396 [    19]: 21121
      0.01797 [    20]: 21202
      0.01688 [     7]: 11221
      0.01610 [     4]: 10222
      0.01580 [    22]: 21220
      0.01077 [     9]: 12112
      0.01065 [     2]: 02212
      0.01061 [    21]: 21211
      0.00999 [    29]: 22210
      0.00916 [     8]: 12022
      0.00645 [    10]: 12121
      0.00505 [    18]: 21112
      0.00283 [    12]: 12211
ROOT  24:  E=   -1502.6101391605 Eh  1.578 eV  12731.5 cm**-1
      0.16138 [    17]: 21022
      0.14302 [    21]: 21211
      0.14251 [     9]: 12112
      0.10886 [    14]: 20122
      0.06772 [    11]: 12202
      0.06166 [    13]: 12220
      0.05579 [     4]: 10222
      0.04014 [     8]: 12022
      0.03234 [     0]: 01222
      0.02476 [    20]: 21202
      0.02155 [    12]: 12211
      0.01873 [    19]: 21121
      0.01748 [    25]: 22102
      0.01669 [     5]: 11122
      0.01588 [     1]: 02122
      0.01487 [    10]: 12121
      0.01362 [    24]: 22021
      0.01201 [     6]: 11212
      0.01007 [    26]: 22111
      0.00576 [    16]: 20221
      0.00505 [     7]: 11221
ROOT  25:  E=   -1502.6071203368 Eh  1.661 eV  13394.0 cm**-1
      0.11135 [     7]: 11221
      0.10376 [    19]: 21121
      0.08476 [    15]: 20212
      0.08369 [    23]: 22012
      0.07425 [     6]: 11212
      0.06770 [    26]: 22111
      0.05583 [     1]: 02122
      0.05307 [    27]: 22120
      0.05233 [     4]: 10222
      0.05163 [     8]: 12022
      0.05056 [     5]: 11122
      0.03714 [     9]: 12112
      0.03240 [    21]: 21211
      0.03233 [     2]: 02212
      0.02845 [    29]: 22210
      0.02597 [    24]: 22021
      0.02564 [    16]: 20221
      0.01487 [    10]: 12121
      0.00713 [    22]: 21220
      0.00705 [     0]: 01222
ROOT  26:  E=   -1502.6037752773 Eh  1.752 eV  14128.2 cm**-1
      0.17251 [    19]: 21121
      0.13577 [    10]: 12121
      0.13238 [    17]: 21022
      0.08736 [     5]: 11122
      0.07913 [    13]: 12220
      0.07072 [     0]: 01222
      0.06733 [     7]: 11221
      0.06580 [    14]: 20122
      0.05372 [     4]: 10222
      0.04422 [    24]: 22021
      0.04363 [    16]: 20221
      0.03475 [     1]: 02122
      0.00663 [     8]: 12022
ROOT  27:  E=   -1502.6037492895 Eh  1.752 eV  14133.9 cm**-1
      0.18368 [     5]: 11122
      0.14211 [    14]: 20122
      0.13402 [     7]: 11221
      0.08920 [     3]: 02221
      0.08131 [    19]: 21121
      0.07085 [    17]: 21022
      0.06640 [    10]: 12121
      0.06008 [    27]: 22120
      0.04771 [    24]: 22021
      0.04082 [     4]: 10222
      0.04019 [     8]: 12022
      0.02941 [    22]: 21220
      0.00527 [    16]: 20221
ROOT  28:  E=   -1502.5520442705 Eh  3.159 eV  25481.8 cm**-1
      0.23148 [     9]: 12112
      0.22771 [    21]: 21211
      0.11457 [     6]: 11212
      0.11025 [    26]: 22111
      0.08052 [    10]: 12121
      0.04051 [    22]: 21220
      0.04007 [     0]: 01222
      0.03853 [     5]: 11122
      0.02065 [    24]: 22021
      0.02064 [    19]: 21121
      0.01854 [    16]: 20221
      0.01566 [    18]: 21112
      0.01067 [     7]: 11221
      0.00945 [     4]: 10222
      0.00824 [     8]: 12022
      0.00537 [    27]: 22120
      0.00523 [     1]: 02122
ROOT  29:  E=   -1502.5483337193 Eh  3.260 eV  26296.2 cm**-1
      0.11594 [    11]: 12202
      0.10090 [    22]: 21220
      0.08015 [    13]: 12220
      0.07520 [    20]: 21202
      0.07242 [    10]: 12121
      0.07234 [     5]: 11122
      0.06957 [    17]: 21022
      0.05171 [    27]: 22120
      0.04823 [     8]: 12022
      0.04628 [    21]: 21211
      0.04505 [     9]: 12112
      0.04249 [     7]: 11221
      0.03969 [    24]: 22021
      0.03547 [    16]: 20221
      0.02963 [    25]: 22102
      0.02780 [    14]: 20122
      0.01591 [    19]: 21121
      0.00869 [    26]: 22111
      0.00845 [     6]: 11212
      0.00325 [     1]: 02122
      0.00325 [     4]: 10222
ROOT  30:  E=   -1502.5482714576 Eh  3.262 eV  26309.8 cm**-1
      0.11058 [    28]: 22201
      0.10347 [     1]: 02122
      0.07993 [     3]: 02221
      0.07689 [    25]: 22102
      0.07413 [    19]: 21121
      0.07013 [    14]: 20122
      0.06897 [     7]: 11221
      0.05265 [     0]: 01222
      0.05006 [    26]: 22111
      0.04826 [    16]: 20221
      0.04700 [     6]: 11212
      0.04117 [    10]: 12121
      0.03850 [     4]: 10222
      0.03262 [     8]: 12022
      0.03082 [    20]: 21202
      0.02771 [    17]: 21022
      0.01536 [     5]: 11122
      0.00846 [     9]: 12112
      0.00746 [    21]: 21211
      0.00378 [    22]: 21220
      0.00303 [    24]: 22021
      0.00301 [    27]: 22120
      0.00275 [    18]: 21112
ROOT  31:  E=   -1502.5419168135 Eh  3.435 eV  27704.5 cm**-1
      0.20359 [     5]: 11122
      0.14389 [     7]: 11221
      0.07221 [    10]: 12121
      0.07099 [     6]: 11212
      0.06898 [    26]: 22111
      0.06589 [    27]: 22120
      0.05634 [    19]: 21121
      0.04941 [    18]: 21112
      0.03860 [    29]: 22210
      0.03597 [     2]: 02212
      0.03459 [    24]: 22021
      0.03242 [     4]: 10222
      0.03118 [     8]: 12022
      0.03111 [    22]: 21220
      0.01297 [    15]: 20212
      0.01180 [    23]: 22012
      0.00885 [     9]: 12112
      0.00840 [    21]: 21211
      0.00608 [    14]: 20122
      0.00545 [    12]: 12211
      0.00415 [    16]: 20221
      0.00330 [    17]: 21022
ROOT  32:  E=   -1502.5418564283 Eh  3.437 eV  27717.8 cm**-1
      0.20634 [    19]: 21121
      0.14899 [    10]: 12121
      0.07539 [    12]: 12211
      0.07509 [     7]: 11221
      0.06827 [    21]: 21211
      0.06671 [     9]: 12112
      0.06332 [     5]: 11122
      0.06089 [     0]: 01222
      0.03573 [     4]: 10222
      0.02968 [     1]: 02122
      0.02774 [    16]: 20221
      0.02774 [    24]: 22021
      0.02533 [    18]: 21112
      0.02476 [    23]: 22012
      0.02463 [    15]: 20212
      0.00988 [    26]: 22111
      0.00777 [     6]: 11212
      0.00566 [    17]: 21022
      0.00339 [     8]: 12022
      0.00308 [     2]: 02212
      0.00290 [    29]: 22210
      0.00262 [    14]: 20122
ROOT  33:  E=   -1502.5389081941 Eh  3.517 eV  28364.8 cm**-1
      0.12884 [     5]: 11122
      0.11797 [    10]: 12121
      0.08618 [     9]: 12112
      0.07930 [    21]: 21211
      0.06586 [    24]: 22021
      0.06518 [    19]: 21121
      0.06502 [    16]: 20221
      0.06274 [    22]: 21220
      0.06245 [     0]: 01222
      0.04584 [    18]: 21112
      0.04475 [    12]: 12211
      0.04312 [     6]: 11212
      0.03792 [    26]: 22111
      0.03202 [     8]: 12022
      0.03058 [     4]: 10222
      0.01454 [     7]: 11221
      0.00888 [     1]: 02122
      0.00876 [    27]: 22120
ROOT  34:  E=   -1502.5387152173 Eh  3.522 eV  28407.2 cm**-1
      0.14663 [     7]: 11221
      0.11434 [    19]: 21121
      0.07248 [     2]: 02212
      0.07058 [    27]: 22120
      0.06737 [     1]: 02122
      0.06457 [    29]: 22210
      0.05720 [     4]: 10222
      0.05526 [     8]: 12022
      0.05522 [    23]: 22012
      0.05443 [     5]: 11122
      0.05366 [    15]: 20212
      0.03195 [     6]: 11212
      0.03062 [    26]: 22111
      0.03006 [    24]: 22021
      0.02720 [    16]: 20221
      0.02046 [    10]: 12121
      0.01652 [     9]: 12112
      0.01414 [    21]: 21211
      0.00888 [     0]: 01222
      0.00836 [    22]: 21220
ROOT  35:  E=   -1502.4521981205 Eh  5.876 eV  47395.5 cm**-1
      0.20408 [    15]: 20212
      0.20289 [    23]: 22012
      0.18628 [     2]: 02212
      0.18495 [    29]: 22210
      0.03283 [     7]: 11221
      0.02744 [    19]: 21121
      0.02272 [    26]: 22111
      0.02265 [     6]: 11212
      0.01942 [    27]: 22120
      0.01365 [     8]: 12022
      0.01300 [     4]: 10222
      0.01288 [     5]: 11122
      0.01227 [     1]: 02122
      0.01133 [     9]: 12112
      0.01091 [    21]: 21211
      0.00824 [    16]: 20221
      0.00561 [    24]: 22021
      0.00456 [    10]: 12121
ROOT  36:  E=   -1502.4457809360 Eh  6.051 eV  48803.9 cm**-1
      0.16254 [    22]: 21220
      0.15280 [     8]: 12022
      0.12527 [     4]: 10222
      0.08572 [    11]: 12202
      0.08094 [    27]: 22120
      0.07083 [     0]: 01222
      0.06259 [    20]: 21202
      0.03677 [     1]: 02122
      0.03204 [    25]: 22102
      0.02901 [     9]: 12112
      0.02840 [    21]: 21211
      0.02226 [    17]: 21022
      0.02030 [    13]: 12220
      0.01600 [    12]: 12211
      0.01153 [    10]: 12121
      0.01103 [    14]: 20122
      0.00879 [    19]: 21121
      0.00684 [     5]: 11122
      0.00604 [    15]: 20212
      0.00546 [     7]: 11221
      0.00522 [    18]: 21112
      0.00450 [    23]: 22012
      0.00366 [    16]: 20221
      0.00365 [     6]: 11212
      0.00339 [    26]: 22111
      0.00311 [    24]: 22021
ROOT  37:  E=   -1502.4455888016 Eh  6.056 eV  48846.1 cm**-1
      0.16014 [    16]: 20221
      0.16000 [     1]: 02122
      0.13160 [    24]: 22021
      0.08474 [    28]: 22201
      0.08046 [     0]: 01222
      0.06593 [    27]: 22120
      0.06123 [    25]: 22102
      0.03417 [    22]: 21220
      0.03083 [    20]: 21202
      0.02840 [     6]: 11212
      0.02771 [    26]: 22111
      0.02230 [     3]: 02221
      0.02111 [    14]: 20122
      0.01099 [    17]: 21022
      0.01094 [    18]: 21112
      0.01043 [     2]: 02212
      0.00993 [     7]: 11221
      0.00913 [     5]: 11122
      0.00696 [    19]: 21121
      0.00577 [    29]: 22210
      0.00487 [    10]: 12121
      0.00445 [     8]: 12022
      0.00420 [    23]: 22012
      0.00371 [    21]: 21211
      0.00348 [     9]: 12112
      0.00345 [     4]: 10222
ROOT  38:  E=   -1502.4223068040 Eh  6.690 eV  53955.9 cm**-1
      0.20484 [    16]: 20221
      0.15478 [     1]: 02122
      0.12764 [    24]: 22021
      0.07661 [     3]: 02221
      0.07352 [     0]: 01222
      0.06654 [    14]: 20122
      0.04070 [    27]: 22120
      0.03146 [    19]: 21121
      0.03015 [    17]: 21022
      0.02875 [     7]: 11221
      0.02604 [    28]: 22201
      0.02482 [     5]: 11122
      0.01751 [     4]: 10222
      0.01721 [    22]: 21220
      0.01456 [    25]: 22102
      0.01436 [     8]: 12022
      0.01434 [    10]: 12121
      0.00677 [    20]: 21202
      0.00626 [     6]: 11212
      0.00599 [    26]: 22111
      0.00566 [    18]: 21112
      0.00355 [     2]: 02212
      0.00276 [    29]: 22210
ROOT  39:  E=   -1502.4222414191 Eh  6.691 eV  53970.2 cm**-1
      0.21197 [     8]: 12022
      0.14756 [    22]: 21220
      0.13245 [     4]: 10222
      0.07731 [    13]: 12220
      0.06978 [    27]: 22120
      0.06601 [    17]: 21022
      0.03975 [     0]: 01222
      0.03221 [     5]: 11122
      0.03041 [    14]: 20122
      0.02845 [    10]: 12121
      0.02826 [    11]: 12202
      0.02342 [    19]: 21121
      0.01762 [    24]: 22021
      0.01695 [     1]: 02122
      0.01413 [    16]: 20221
      0.01400 [     7]: 11221
      0.01369 [    20]: 21202
      0.00695 [     9]: 12112
      0.00661 [    21]: 21211
      0.00614 [    25]: 22102
      0.00565 [    12]: 12211
      0.00323 [    23]: 22012
      0.00270 [    15]: 20212
      0.00259 [    18]: 21112

                 <<<<<<<<<<<<<<<<<<INITIAL CI STATE CHECK>>>>>>>>>>>>>>>>>>

   E(CAS)= -1502.649516721 Eh DE=    0.000000e+00
   --- Energy gap subspaces: Ext-Act = 1.582   Act-Int = 0.142
   --- current l-shift: Up(Ext-Act) = 1.00   Dn(Act-Int) = 1.86
   N(occ)=  1.40000 1.40000 1.40000 1.40000 1.40000
   ||g|| =     1.219146e+02 Max(G)=   -1.102074e+02 Rot=221,0
   --- Option=FreezeIE: ||g|| =    121.912484423 
                              = 100.00% 
                        Damping (0.029) elements outside Int-Ext
   --- Orbital Update [   SuperCI]
   SUPERCI-ITER   0: DE=    -0.253286207 <r|r>=      0.005796210
   SUPERCI-ITER   1: DE=    -0.000571137 <r|r>=      0.012181437
   SUPERCI-ITER   2: DE=    -0.000040257 <r|r>=      0.002366422
   SUPERCI-ITER   3: DE=    -0.000009211 <r|r>=      0.000144264
   SUPERCI-ITER   4: DE=    -0.000001595 <r|r>=      0.000011529
   SUPERCI-ITER   5: DE=    -0.000000270 <r|r>=      0.000000401
   SUPERCI-ITER   6: DE=    -0.000000045 <r|r>=      0.000001179
   SUPERCI-ITER   7: DE=    -0.000000008 <r|r>=      0.000000087
   SUPERCI-ITER   8: DE=    -0.000000001 <r|r>=      0.000000001
   SUPERCI-ITER   9: DE=    -0.000000000 
   <Psi(SX)|Psi(SX)>=      1.000000000 DE(SX)=-0.253908731
   Largest coefficient in the normalized |SX> wavefunction= 0.009595923
   --- Forming Natural Orbitals

MACRO-ITERATION   2: 
   --- Canonicalize Internal Space
   --- Canonicalize External Space
   --- Inactive Energy E0 = -1477.71240579 Eh
CI-ITERATION   0: 
 -1503.669958720   0.000000000000 (    0.00)
 -1503.669427854   0.000000000000
 -1503.663086121   0.000000000000
 -1503.659053499   0.000000000000
 -1503.658932737   0.000000000000
 -1503.650470390   0.000000000000
 -1503.649529752   0.000000000000
 -1503.595001375   0.000000000000
 -1503.571584147   0.000000000000
 -1503.571471829   0.000000000000
   CI-PROBLEM SOLVED
   DENSITIES MADE
CI-ITERATION   0: 
 -1503.596260045   0.000000000000 (    0.01)
 -1503.595485416   0.000000000000
 -1503.587241101   0.000000000000
 -1503.587160952   0.000000000000
 -1503.586291643   0.000000000000
 -1503.586226881   0.000000000000
 -1503.582243088   0.000000000000
 -1503.572955954   0.000000000000
 -1503.572946490   0.000000000000
 -1503.571510438   0.000000000000
 -1503.571440949   0.000000000000
 -1503.569230283   0.000000000000
 -1503.557274382   0.000000000000
 -1503.557033538   0.000000000000
 -1503.555936964   0.000000000000
 -1503.555891708   0.000000000000
 -1503.552163544   0.000000000000
 -1503.552118706   0.000000000000
 -1503.548568901   0.000000000000
 -1503.548514727   0.000000000000
 -1503.548371452   0.000000000000
 -1503.548195793   0.000000000000
 -1503.544374762   0.000000000000
 -1503.539788171   0.000000000000
 -1503.539753822   0.000000000000
 -1503.536793756   0.000000000000
 -1503.533968604   0.000000000000
 -1503.533941799   0.000000000000
 -1503.481220183   0.000000000000
 -1503.477675041   0.000000000000
 -1503.477644029   0.000000000000
 -1503.471585041   0.000000000000
 -1503.471524057   0.000000000000
 -1503.468535847   0.000000000000
 -1503.468307118   0.000000000000
 -1503.381166219   0.000000000000
 -1503.375142753   0.000000000000
 -1503.374936366   0.000000000000
 -1503.352040040   0.000000000000
 -1503.352001784   0.000000000000
   CI-PROBLEM SOLVED
   DENSITIES MADE
   E(CAS)= -1503.578969101 Eh DE=   -9.294524e-01
   --- Energy gap subspaces: Ext-Act = 0.546   Act-Int = 0.047
   --- current l-shift: Up(Ext-Act) = 0.95   Dn(Act-Int) = 1.45
   N(occ)=  1.40000 1.40000 1.40000 1.40000 1.40000
   ||g|| =     3.605754e+01 Max(G)=   -3.264942e+01 Rot=221,0
   --- Option=FreezeIE: ||g|| =     36.051182067 
                              = 99.98% 
                        Damping (0.029) elements outside Int-Ext
   --- Orbital Update [   SuperCI]
   SUPERCI-ITER   0: DE=    -0.022380612 <r|r>=      0.000001767
   SUPERCI-ITER   1: DE=    -0.000001527 <r|r>=      0.000004158
   SUPERCI-ITER   2: DE=    -0.000000010 <r|r>=      0.000001250
   SUPERCI-ITER   3: DE=    -0.000000001 <r|r>=      0.000000000
   <Psi(SX)|Psi(SX)>=      1.000000000 DE(SX)=-0.022382151
   Largest coefficient in the normalized |SX> wavefunction= 0.010074310
   --- Forming Natural Orbitals

MACRO-ITERATION   3: 
   --- Canonicalize Internal Space
   --- Canonicalize External Space
   --- Inactive Energy E0 = -1477.81399213 Eh
CI-ITERATION   0: 
 -1503.753531680   0.000000000000 (    0.00)
 -1503.753090504   0.000000000000
 -1503.746716453   0.000000000000
 -1503.742578057   0.000000000000
 -1503.742463650   0.000000000000
 -1503.733925144   0.000000000000
 -1503.733022215   0.000000000000
 -1503.678693134   0.000000000000
 -1503.654727463   0.000000000000
 -1503.654612723   0.000000000000
   CI-PROBLEM SOLVED
   DENSITIES MADE
CI-ITERATION   0: 
 -1503.679876278   0.000000000000 (    0.00)
 -1503.679131000   0.000000000000
 -1503.670820068   0.000000000000
 -1503.670742611   0.000000000000
 -1503.669758346   0.000000000000
 -1503.669675581   0.000000000000
 -1503.665749833   0.000000000000
 -1503.656276660   0.000000000000
 -1503.656263819   0.000000000000
 -1503.655083731   0.000000000000
 -1503.655021413   0.000000000000
 -1503.652917328   0.000000000000
 -1503.640795414   0.000000000000
 -1503.640582399   0.000000000000
 -1503.639354205   0.000000000000
 -1503.639298073   0.000000000000
 -1503.635666174   0.000000000000
 -1503.635637839   0.000000000000
 -1503.631925794   0.000000000000
 -1503.631785736   0.000000000000
 -1503.631751601   0.000000000000
 -1503.631669534   0.000000000000
 -1503.627712988   0.000000000000
 -1503.623158054   0.000000000000
 -1503.623136138   0.000000000000
 -1503.620094592   0.000000000000
 -1503.616978413   0.000000000000
 -1503.616956667   0.000000000000
 -1503.564503658   0.000000000000
 -1503.560887492   0.000000000000
 -1503.560860530   0.000000000000
 -1503.554779926   0.000000000000
 -1503.554716840   0.000000000000
 -1503.551604413   0.000000000000
 -1503.551369708   0.000000000000
 -1503.464621482   0.000000000000
 -1503.458267172   0.000000000000
 -1503.458067859   0.000000000000
 -1503.434759617   0.000000000000
 -1503.434729780   0.000000000000
   CI-PROBLEM SOLVED
   DENSITIES MADE
   E(CAS)= -1503.662380411 Eh DE=   -8.341131e-02
   --- Energy gap subspaces: Ext-Act = 0.543   Act-Int = 0.051
   --- current l-shift: Up(Ext-Act) = 0.79   Dn(Act-Int) = 1.28
   N(occ)=  1.40000 1.40000 1.40000 1.40000 1.40000
   ||g|| =     1.066998e+01 Max(G)=    9.655589e+00 Rot=221,0
   --- Option=FreezeIE: ||g|| =     10.649154614 
                              = 99.80% 
                        Damping (0.029) elements outside Int-Ext
   --- Orbital Update [   SuperCI]
   SUPERCI-ITER   0: DE=    -0.002052823 <r|r>=      0.000000454
   SUPERCI-ITER   1: DE=    -0.000000497 <r|r>=      0.000000472
   SUPERCI-ITER   2: DE=    -0.000000004 <r|r>=      0.000000043
   Warning: Orthogonalization failed (3e-16)! Terminating Iterations.
   <Psi(SX)|Psi(SX)>=      1.000000000 DE(SX)=-0.002053324
   Largest coefficient in the normalized |SX> wavefunction= 0.006383646
   --- Forming Natural Orbitals

MACRO-ITERATION   4: 
   --- Canonicalize Internal Space
   --- Canonicalize External Space
   --- Inactive Energy E0 = -1477.81404654 Eh
CI-ITERATION   0: 
 -1503.762372044   0.000000000000 (    0.00)
 -1503.761982670   0.000000000000
 -1503.755600692   0.000000000000
 -1503.751356349   0.000000000000
 -1503.751248697   0.000000000000
 -1503.742521685   0.000000000000
 -1503.741661370   0.000000000000
 -1503.687554408   0.000000000000
 -1503.663192515   0.000000000000
 -1503.663081923   0.000000000000
   CI-PROBLEM SOLVED
   DENSITIES MADE
CI-ITERATION   0: 
 -1503.688817340   0.000000000000 (    0.00)
 -1503.688103908   0.000000000000
 -1503.679632865   0.000000000000
 -1503.679559645   0.000000000000
 -1503.678490405   0.000000000000
 -1503.678400814   0.000000000000
 -1503.674466832   0.000000000000
 -1503.664915327   0.000000000000
 -1503.664898119   0.000000000000
 -1503.663867880   0.000000000000
 -1503.663813442   0.000000000000
 -1503.661760438   0.000000000000
 -1503.649468495   0.000000000000
 -1503.649277414   0.000000000000
 -1503.648029887   0.000000000000
 -1503.647968742   0.000000000000
 -1503.644269746   0.000000000000
 -1503.644254704   0.000000000000
 -1503.640525460   0.000000000000
 -1503.640339197   0.000000000000
 -1503.640309345   0.000000000000
 -1503.640279556   0.000000000000
 -1503.636278961   0.000000000000
 -1503.631770382   0.000000000000
 -1503.631754501   0.000000000000
 -1503.628656322   0.000000000000
 -1503.625320450   0.000000000000
 -1503.625302193   0.000000000000
 -1503.573064021   0.000000000000
 -1503.569390171   0.000000000000
 -1503.569363850   0.000000000000
 -1503.563225549   0.000000000000
 -1503.563162812   0.000000000000
 -1503.559996186   0.000000000000
 -1503.559760380   0.000000000000
 -1503.473233531   0.000000000000
 -1503.466648679   0.000000000000
 -1503.466457374   0.000000000000
 -1503.442886733   0.000000000000
 -1503.442860099   0.000000000000
   CI-PROBLEM SOLVED
   DENSITIES MADE
   E(CAS)= -1503.671035889 Eh DE=   -8.655479e-03
   --- Energy gap subspaces: Ext-Act = 0.542   Act-Int = 0.052
   --- current l-shift: Up(Ext-Act) = 0.46   Dn(Act-Int) = 0.95
   N(occ)=  1.40000 1.40000 1.40000 1.40000 1.40000
   ||g|| =     3.214398e+00 Max(G)=    2.855029e+00 Rot=221,0
   --- Option=FreezeIE: ||g|| =      3.146757787 
                              = 97.90% 
                        Damping (0.029) elements outside Int-Ext
   --- Orbital Update [   SuperCI]
   SUPERCI-ITER   0: DE=    -0.000211586 <r|r>=      0.000000168
   SUPERCI-ITER   1: DE=    -0.000000165 <r|r>=      0.000003205
   Warning: Orthogonalization failed (2e-17)! Terminating Iterations.
   Warning: Super-CI convergence failure - keeping first order |SX> wavefunction
   <Psi(SX)|Psi(SX)>=      1.000000000 DE(SX)=-0.000211751
   Largest coefficient in the normalized |SX> wavefunction= 0.003620674
   --- Forming Natural Orbitals

MACRO-ITERATION   5: 
   --- Canonicalize Internal Space
   --- Canonicalize External Space
   --- Inactive Energy E0 = -1477.80626752 Eh
CI-ITERATION   0: 
 -1503.764210335   0.000000000000 (    0.00)
 -1503.763863499   0.000000000000
 -1503.757504957   0.000000000000
 -1503.753165834   0.000000000000
 -1503.753063990   0.000000000000
 -1503.744167590   0.000000000000
 -1503.743347201   0.000000000000
 -1503.689366320   0.000000000000
 -1503.664811634   0.000000000000
 -1503.664705447   0.000000000000
   CI-PROBLEM SOLVED
   DENSITIES MADE
CI-ITERATION   0: 
 -1503.690747118   0.000000000000 (    0.00)
 -1503.690064106   0.000000000000
 -1503.681437805   0.000000000000
 -1503.681368121   0.000000000000
 -1503.680264642   0.000000000000
 -1503.680168846   0.000000000000
 -1503.676195558   0.000000000000
 -1503.666625296   0.000000000000
 -1503.666605397   0.000000000000
 -1503.665647434   0.000000000000
 -1503.665598475   0.000000000000
 -1503.663569937   0.000000000000
 -1503.651129799   0.000000000000
 -1503.650954699   0.000000000000
 -1503.649743847   0.000000000000
 -1503.649678570   0.000000000000
 -1503.645861093   0.000000000000
 -1503.645855503   0.000000000000
 -1503.642152654   0.000000000000
 -1503.641970638   0.000000000000
 -1503.641941416   0.000000000000
 -1503.641915738   0.000000000000
 -1503.637913584   0.000000000000
 -1503.633450289   0.000000000000
 -1503.633437869   0.000000000000
 -1503.630296018   0.000000000000
 -1503.626854051   0.000000000000
 -1503.626838205   0.000000000000
 -1503.574698196   0.000000000000
 -1503.570992630   0.000000000000
 -1503.570966502   0.000000000000
 -1503.564768043   0.000000000000
 -1503.564707038   0.000000000000
 -1503.561535621   0.000000000000
 -1503.561299461   0.000000000000
 -1503.474817123   0.000000000000
 -1503.468126115   0.000000000000
 -1503.467941935   0.000000000000
 -1503.444247058   0.000000000000
 -1503.444222133   0.000000000000
   CI-PROBLEM SOLVED
   DENSITIES MADE
   E(CAS)= -1503.672742947 Eh DE=   -1.707058e-03
   --- Energy gap subspaces: Ext-Act = 0.541   Act-Int = 0.052
   --- current l-shift: Up(Ext-Act) = 0.46   Dn(Act-Int) = 0.95
   N(occ)=  1.40000 1.40000 1.40000 1.40000 1.40000
   ||g|| =     1.133373e+00 Max(G)=    8.438843e-01 Rot=221,0
   --- Orbital Update [   SuperCI]
   SUPERCI-ITER   0: DE=    -0.007268696 <r|r>=      0.000061393
   SUPERCI-ITER   1: DE=    -0.000013807 <r|r>=      0.000004003
   Warning: Orthogonalization failed (-3e-16)! Terminating Iterations.
   <Psi(SX)|Psi(SX)>=      1.000000000 DE(SX)=-0.007282503
   Largest coefficient in the normalized |SX> wavefunction= 0.057704346
   --- Forming Natural Orbitals

MACRO-ITERATION   6: 
   --- Canonicalize Internal Space
   --- Canonicalize External Space
   --- Inactive Energy E0 = -1477.85610834 Eh
CI-ITERATION   0: 
 -1503.722387494   0.000000000000 (    0.00)
 -1503.718965005   0.000000000000
 -1503.709495256   0.000000000000
 -1503.708769482   0.000000000000
 -1503.708123306   0.000000000000
 -1503.702057059   0.000000000000
 -1503.699844234   0.000000000000
 -1503.647927218   0.000000000000
 -1503.622563205   0.000000000000
 -1503.622426415   0.000000000000
   CI-PROBLEM SOLVED
   DENSITIES MADE
CI-ITERATION   0: 
 -1503.648317399   0.000000000000 (    0.00)
 -1503.646479940   0.000000000000
 -1503.640607080   0.000000000000
 -1503.640243394   0.000000000000
 -1503.639524020   0.000000000000
 -1503.638520051   0.000000000000
 -1503.634997753   0.000000000000
[...]
 3 106   46280.4    216.1   0.00000   0.00001   0.00000   0.00000000000029   0.00003   0.97611   0.02386
 3 107   46280.4    216.1   0.00000   0.00002   0.00000   0.00000000000089   0.00000   0.99204   0.00796
 3 108   46592.2    214.6   0.00000   0.00000   0.00000   0.00000000000000   0.00198   0.00941   0.98861
 3 109   46592.2    214.6   0.00000   0.00000   0.00000   0.00000000000000   0.00000   0.99931   0.00069
 3 110   66351.3    150.7   0.00000   0.00000   0.00000   0.00000000000001   0.00000   0.90217   0.09783
 3 111   66351.3    150.7   0.00000   0.00000   0.00000   0.00000000000005   0.00000   0.99890   0.00110
 3 112   67593.1    147.9   0.00000   0.00000   0.00000   0.00000000000001   0.00005   0.82546   0.17449
 3 113   67593.1    147.9   0.00000   0.00000   0.00000   0.00000000000008   0.00000   0.99918   0.00082
 3 114   68001.9    147.1   0.00000   0.00000   0.00000   0.00000000000001   0.00000   0.00680   0.99319
 3 115   68001.9    147.1   0.00000   0.00000   0.00000   0.00000000000001   0.00000   0.00954   0.99046
 3 116   72946.6    137.1   0.00000   0.00000   0.00000   0.00000000000001   0.00005   0.00270   0.99725
 3 117   72946.6    137.1   0.00000   0.00000   0.00000   0.00000000000001   0.00006   0.00109   0.99885
 3 118   73439.3    136.2   0.00000   0.00007   0.00000   0.00000000000302   0.00000   0.99719   0.00281
 3 119   73439.3    136.2   0.00000   0.00000   0.00000   0.00000000000011   0.00007   0.92363   0.07631

Done

                 =============================
                 AB INITIO LIGAND FIELD THEORY
                       d7 configuration
                          2 CI blocks
                         MOs 19 to 23
                 =============================

Metal/Atom center is atom 0
orbital phases =   1.0   1.0   1.0   1.0   1.0 
Metal/Atom d-orbital parts of active orbitals
Shell 15
             19        20        21        22        23
dz2     :  0.611941 -0.000004  0.000000 -0.001731  0.000062
dxz     : -0.000021  0.617908  0.000084 -0.000002 -0.000000
dyz     :  0.000000  0.000402  0.616099  0.000000  0.000004
dx2y2   :  0.016141 -0.000011 -0.000000  0.603337  0.000036
dxy     :  0.000362 -0.000000  0.000024  0.000202  0.617908
Shell 16
             19        20        21        22        23
dz2     :  0.410183  0.000004 -0.000000  0.000268 -0.000064
dxz     : -0.000003  0.411622 -0.000148  0.000004 -0.000000
dyz     :  0.000000  0.000148  0.413770 -0.000000 -0.000004
dx2y2   :  0.012223 -0.000004 -0.000000  0.402725 -0.000037
dxy     :  0.000063 -0.000000  0.000004  0.000035  0.411622
Shell 17
             19        20        21        22        23
dz2     :  0.211715 -0.000005  0.000000  0.003688  0.000079
dxz     : -0.000028  0.217311  0.000433 -0.000012  0.000000
dyz     : -0.000000  0.000207  0.215563  0.000000  0.000005
dx2y2   :  0.009798 -0.000006 -0.000000  0.203662  0.000046
dxy     :  0.000480  0.000000  0.000032  0.000268  0.217310
Shell 20
             19        20        21        22        23
dz2     : -0.004716  0.000076  0.000000  0.025246 -0.001314
dxz     : -0.000038  0.010996  0.000734 -0.000020  0.000000
dyz     :  0.000000 -0.001512  0.009447 -0.000000 -0.000087
dx2y2   :  0.024667  0.000043 -0.000000 -0.034518 -0.000757
dxy     :  0.000646  0.000000  0.000043  0.000360  0.010994

Adjusting phases of one-electron integrals               ... done
Adjusting phases of two-electron integrals               ... done


-----------------------------------------------------------------
Computing F0s from 2-electron integrals                  ... done 
-----------------------------------------------------------------
F0   =  0.898037224 a.u. =    24.437 eV =  197096.4 cm**-1
-----------------------------------------------------------------

Preparing for fit                                        ... done
Making fit matrices                                      ... done
Calculating ab initio Hamiltonian matrices               ... 
Calculating fit matrices                                 ... done
Fitting                                                  ... done

------------------------------
AILFT MATRIX ELEMENTS (CASSCF)
--------------------------------

Ligand field one-electron matrix VLFT (a.u.) : 
Orbital          dz2        dxz        dyz        dx2-y2     dxy
  dz2         -6.344637  -0.000013   0.000000  -0.014592   0.000234 
  dxz         -0.000013  -6.341592   0.000262  -0.000007  -0.000000 
  dyz          0.000000   0.000262  -6.352782   0.000000   0.000016 
  dx2-y2      -0.014592  -0.000007   0.000000  -6.326623   0.000131 
  dxy          0.000234  -0.000000   0.000016   0.000131  -6.341591 

-------------------------------------------------
Slater-Condon Parameters (electronic repulsion) : 
-------------------------------------------------
F0dd(from 2el Ints)     =  0.898037224 a.u. =    24.437 eV =  197096.4 cm**-1 (fixed)
F2dd                    =  0.407797222 a.u. =    11.097 eV =   89501.1 cm**-1
F4dd                    =  0.257541282 a.u. =     7.008 eV =   56523.8 cm**-1
-------------------
Racah Parameters : 
-------------------
A(F0dd from 2el Ints)   =  0.869421526 a.u. =    23.658 eV =  190816.0 cm**-1
B                       =  0.005402423 a.u. =     0.147 eV =    1185.7 cm**-1
C                       =  0.020439784 a.u. =     0.556 eV =    4486.0 cm**-1
C/B                     =  3.783
-------------------------------------------------------------------------------

-----------------------------------------
The ligand field one electron eigenfunctions:
-----------------------------------------
Orbital    Energy (eV)  Energy(cm-1)      dz2        dxz        dyz        dx2-y2     dxy
    1          0.000        0.0        -0.003245   0.023406  -0.999718  -0.001810   0.001490 
    2          0.000        0.8        -0.873027  -0.001439   0.003718  -0.487067   0.023935 
    3          0.305     2458.8         0.002489   0.984364   0.023296   0.001387   0.174578 
    4          0.305     2459.0         0.020794  -0.174581  -0.002709   0.011597   0.984351 
    5          0.934     7529.5         0.487211  -0.000001  -0.000000  -0.873285  -0.000004 
Ligand field orbitals were stored in rho.casscf.lft.gbw

Calculating ligand field Hamiltonian matrices          ... done
Diagonalizing and fitting the ligand field Hamiltonian ... done
Calculating statistical parameters                     ... done

Reference energy AI-LFT =    -26.089940128 au
Reference energy AI     =    -26.089246439 au

------------------------------------------------
COMPARISON OF AB INITIO AND LIGAND FIELD RESULTS
------------------------------------------------

Block   1
---------
   AI-Root   0: E(AI)=    0.000 eV -> LF-Root   0:     0.000 eV    S= 1.000 Delta=    0.000 eV
   AI-Root   1: E(AI)=    0.001 eV -> LF-Root   1:     0.001 eV    S= 1.000 Delta=    0.000 eV
   AI-Root   2: E(AI)=    0.174 eV -> LF-Root   2:     0.154 eV    S= 1.000 Delta=    0.021 eV
   AI-Root   3: E(AI)=    0.300 eV -> LF-Root   3:     0.298 eV    S= 0.975 Delta=    0.002 eV
   AI-Root   4: E(AI)=    0.300 eV -> LF-Root   4:     0.282 eV    S= 0.974 Delta=    0.018 eV
   AI-Root   5: E(AI)=    0.550 eV -> LF-Root   5:     0.630 eV    S= 1.000 Delta=   -0.080 eV
   AI-Root   6: E(AI)=    0.550 eV -> LF-Root   6:     0.630 eV    S= 1.000 Delta=   -0.081 eV
   AI-Root   7: E(AI)=    2.109 eV -> LF-Root   7:     2.056 eV    S= 1.000 Delta=    0.053 eV
   AI-Root   8: E(AI)=    2.793 eV -> LF-Root   8:     2.843 eV    S= 0.984 Delta=   -0.050 eV
   AI-Root   9: E(AI)=    2.793 eV -> LF-Root   9:     2.859 eV    S= 0.983 Delta=   -0.066 eV
   (Dropping RMS error for the reference energy)
   RMS error for this block =     0.051 eV =     411.5 cm**-1 

Block   2
---------
   AI-Root   0: E(AI)=    2.088 eV -> LF-Root   0:     2.118 eV    S= 1.000 Delta=   -0.030 eV
   AI-Root   1: E(AI)=    2.088 eV -> LF-Root   1:     2.118 eV    S= 1.000 Delta=   -0.030 eV
   AI-Root   2: E(AI)=    2.346 eV -> LF-Root   2:     2.363 eV    S= 0.967 Delta=   -0.017 eV
   AI-Root   3: E(AI)=    2.346 eV -> LF-Root   3:     2.365 eV    S= 0.968 Delta=   -0.018 eV
   AI-Root   4: E(AI)=    2.365 eV -> LF-Root   4:     2.443 eV    S= 0.999 Delta=   -0.078 eV
   AI-Root   5: E(AI)=    2.366 eV -> LF-Root   5:     2.443 eV    S= 0.998 Delta=   -0.078 eV
   AI-Root   6: E(AI)=    2.488 eV -> LF-Root   6:     2.483 eV    S= 0.999 Delta=    0.005 eV
   AI-Root   7: E(AI)=    2.743 eV -> LF-Root   7:     2.721 eV    S= 0.982 Delta=    0.022 eV
   AI-Root   8: E(AI)=    2.743 eV -> LF-Root   8:     2.721 eV    S= 0.983 Delta=    0.022 eV
   AI-Root   9: E(AI)=    2.783 eV -> LF-Root   9:     2.832 eV    S= 0.970 Delta=   -0.049 eV
   AI-Root  10: E(AI)=    2.783 eV -> LF-Root  10:     2.815 eV    S= 0.972 Delta=   -0.033 eV
   AI-Root  11: E(AI)=    2.836 eV -> LF-Root  11:     2.913 eV    S= 0.999 Delta=   -0.077 eV
   AI-Root  12: E(AI)=    3.189 eV -> LF-Root  12:     3.183 eV    S= 0.996 Delta=    0.006 eV
   AI-Root  13: E(AI)=    3.189 eV -> LF-Root  13:     3.183 eV    S= 0.996 Delta=    0.006 eV
   AI-Root  14: E(AI)=    3.225 eV -> LF-Root  14:     3.193 eV    S= 1.000 Delta=    0.032 eV
   AI-Root  15: E(AI)=    3.225 eV -> LF-Root  15:     3.193 eV    S= 1.000 Delta=    0.032 eV
   AI-Root  16: E(AI)=    3.338 eV -> LF-Root  16:     3.345 eV    S= 0.984 Delta=   -0.007 eV
   AI-Root  17: E(AI)=    3.338 eV -> LF-Root  17:     3.346 eV    S= 0.983 Delta=   -0.008 eV
   AI-Root  18: E(AI)=    3.444 eV -> LF-Root  18:     3.484 eV    S= 0.958 Delta=   -0.040 eV
   AI-Root  19: E(AI)=    3.444 eV -> LF-Root  19:     3.484 eV    S= 0.976 Delta=   -0.040 eV
   AI-Root  20: E(AI)=    3.449 eV -> LF-Root  20:     3.462 eV    S= 0.955 Delta=   -0.013 eV
   AI-Root  21: E(AI)=    3.449 eV -> LF-Root  21:     3.462 eV    S= 0.965 Delta=   -0.013 eV
   AI-Root  22: E(AI)=    3.525 eV -> LF-Root  22:     3.515 eV    S= 0.992 Delta=    0.010 eV
   AI-Root  23: E(AI)=    3.685 eV -> LF-Root  23:     3.728 eV    S= 0.980 Delta=   -0.043 eV
   AI-Root  24: E(AI)=    3.685 eV -> LF-Root  24:     3.728 eV    S= 0.981 Delta=   -0.043 eV
   AI-Root  25: E(AI)=    3.758 eV -> LF-Root  25:     3.729 eV    S= 0.999 Delta=    0.030 eV
   AI-Root  26: E(AI)=    3.862 eV -> LF-Root  26:     3.926 eV    S= 1.000 Delta=   -0.064 eV
   AI-Root  27: E(AI)=    3.862 eV -> LF-Root  27:     3.926 eV    S= 1.000 Delta=   -0.064 eV
   AI-Root  28: E(AI)=    5.353 eV -> LF-Root  28:     5.384 eV    S= 1.000 Delta=   -0.032 eV
   AI-Root  29: E(AI)=    5.445 eV -> LF-Root  29:     5.479 eV    S= 0.987 Delta=   -0.033 eV
   AI-Root  30: E(AI)=    5.445 eV -> LF-Root  30:     5.479 eV    S= 0.987 Delta=   -0.033 eV
   AI-Root  31: E(AI)=    5.633 eV -> LF-Root  31:     5.650 eV    S= 1.000 Delta=   -0.017 eV
   AI-Root  32: E(AI)=    5.633 eV -> LF-Root  32:     5.650 eV    S= 1.000 Delta=   -0.017 eV
   AI-Root  33: E(AI)=    5.716 eV -> LF-Root  33:     5.746 eV    S= 1.000 Delta=   -0.029 eV
   AI-Root  34: E(AI)=    5.716 eV -> LF-Root  34:     5.746 eV    S= 1.000 Delta=   -0.029 eV
   AI-Root  35: E(AI)=    8.186 eV -> LF-Root  35:     8.120 eV    S= 1.000 Delta=    0.066 eV
   AI-Root  36: E(AI)=    8.365 eV -> LF-Root  36:     8.397 eV    S= 0.959 Delta=   -0.033 eV
   AI-Root  37: E(AI)=    8.365 eV -> LF-Root  37:     8.413 eV    S= 0.959 Delta=   -0.048 eV
   AI-Root  38: E(AI)=    9.034 eV -> LF-Root  38:     9.022 eV    S= 1.000 Delta=    0.012 eV
   AI-Root  39: E(AI)=    9.034 eV -> LF-Root  39:     9.022 eV    S= 1.000 Delta=    0.012 eV
   RMS error for this block =     0.038 eV =     305.0 cm**-1 

Total RMS error g=     0.041 eV =     327.1 cm**-1
Note: Dropped RMS error for the reference energy.

Confidence intervals (95%) computed from the square root of the
diagonal elements of the covariance matrix:
H(dz2   ,dz2   )=  0.000225452 a.u. =     0.006 eV =      49.5 cm**-1
H(dxz   ,dz2   )=  0.000190735 a.u. =     0.005 eV =      41.9 cm**-1
H(dxz   ,dxz   )=  0.000225452 a.u. =     0.006 eV =      49.5 cm**-1
H(dyz   ,dz2   )=  0.000190735 a.u. =     0.005 eV =      41.9 cm**-1
H(dyz   ,dxz   )=  0.000190735 a.u. =     0.005 eV =      41.9 cm**-1
H(dyz   ,dyz   )=  0.000225452 a.u. =     0.006 eV =      49.5 cm**-1
H(dx2-y2,dz2   )=  0.000190735 a.u. =     0.005 eV =      41.9 cm**-1
H(dx2-y2,dxz   )=  0.000190735 a.u. =     0.005 eV =      41.9 cm**-1
H(dx2-y2,dyz   )=  0.000190735 a.u. =     0.005 eV =      41.9 cm**-1
H(dx2-y2,dx2-y2)=  0.000225452 a.u. =     0.006 eV =      49.5 cm**-1
H(dxy   ,dz2   )=  0.000190735 a.u. =     0.005 eV =      41.9 cm**-1
H(dxy   ,dxz   )=  0.000190735 a.u. =     0.005 eV =      41.9 cm**-1
H(dxy   ,dyz   )=  0.000190735 a.u. =     0.005 eV =      41.9 cm**-1
H(dxy   ,dx2-y2)=  0.000190735 a.u. =     0.005 eV =      41.9 cm**-1
H(dxy   ,dxy   )=  0.000225452 a.u. =     0.006 eV =      49.5 cm**-1
F2dd            =  0.000809637 a.u. =     0.022 eV =     177.7 cm**-1
F4dd            =  0.001174262 a.u. =     0.032 eV =     257.7 cm**-1
Pearson's correlation coefficient =    1.000 (should be close to 1)

----------------------------------------------
SPIN ORBIT COUPLING (based on CASSCF orbitals)
----------------------------------------------

AI-SOC-X integrals (cm-1)
                  0          1          2          3          4    
      0      -0.000000   0.268279 904.307051  -0.000040  -0.012206
      1      -0.268279  -0.000000   0.006552  -0.149751 520.359855
      2     -904.307051  -0.006552  -0.000000 -504.518792  -0.031141
      3       0.000040   0.149751 504.518792   0.000000   0.000964
      4       0.012206 -520.359855   0.031141  -0.000964   0.000000
AI-SOC-Y integrals (cm-1)
                  0          1          2          3          4    
      0      -0.000000 -879.215941   0.212541   0.017042   0.000000
      1     879.215941   0.000000  -0.000079 -509.224905  -0.278441
      2      -0.212541   0.000079   0.000000  -0.190222 -519.707633
      3      -0.017042 509.224905   0.190222   0.000000  -0.000012
      4      -0.000000   0.278441 519.707633   0.000012  -0.000000
AI-SOC-Z integrals (cm-1)
                  0          1          2          3          4    
      0       0.000000   0.000034   0.014640   0.530327 -28.485894
      1      -0.000034   0.000000 -519.707555  -0.000216   0.015737
      2      -0.014640 519.707555  -0.000000   0.034757   0.000077
      3      -0.530327   0.000216  -0.034757   0.000000 -1015.637747
      4      28.485894  -0.015737  -0.000077 1015.637747   0.000000

Fit to the SOC matrix elements
a = 15.000000
b =     0.954 eV =    7693.9 cm**-1
SOC constant zeta =     0.064 eV =     512.9 cm**-1


LF-SOC-X integrals (cm-1)
                  0          1          2          3          4    
      0       0.000000  -0.000000 888.420437  -0.000000  -0.000000
      1       0.000000   0.000000  -0.000000  -0.000000 512.929778
      2     -888.420437   0.000000   0.000000 -512.929778  -0.000000
      3       0.000000   0.000000 512.929778   0.000000  -0.000000
      4       0.000000 -512.929778   0.000000   0.000000   0.000000
LF-SOC-Y integrals (cm-1)
                  0          1          2          3          4    
      0       0.000000 -888.420437  -0.000000  -0.000000  -0.000000
      1     888.420437   0.000000  -0.000000 -512.929778  -0.000000
      2       0.000000   0.000000   0.000000  -0.000000 -512.929778
      3       0.000000 512.929778   0.000000   0.000000  -0.000000
      4       0.000000   0.000000 512.929778   0.000000   0.000000
LF-SOC-Z integrals (cm-1)
                  0          1          2          3          4    
      0       0.000000  -0.000000  -0.000000  -0.000000  -0.000000
      1       0.000000   0.000000 -512.929778  -0.000000  -0.000000
      2       0.000000 512.929778   0.000000  -0.000000  -0.000000
      3       0.000000   0.000000   0.000000   0.000000 -1025.859556
      4       0.000000   0.000000   0.000000 1025.859556   0.000000

RMS error of nonzero matrix elements =   10.0 cm**-1


-----SOC-CONSTANTS-----
---All Values in cm-1---
ZETA_D = 512.93 
------------------------




---AILFT COMPLETED SUCCESFULLY!---

--------------
CASSCF TIMINGS
--------------

Total time                       ...       63.9 sec
Sum of individual times          ...       62.5 sec ( 97.8%)

Calculation of AO operators
   F(Core) operator              ...       22.8 sec ( 35.7%)
   G(Act) operator               ...       22.0 sec ( 34.4%)
   J(AO) operators               ...        0.0 sec (  0.0%)
Calculation of MO transformed quantities
   J(MO) operators               ...        3.6 sec (  5.6%)
   (pq|rs) integrals             ...        0.0 sec (  0.0%)
   AO->MO one electron integrals ...        0.1 sec (  0.2%)
Configuration interaction steps
   CI-setup phase                ...        0.0 sec (  0.0%)
   CI-solution phase             ...        0.7 sec (  1.2%)
   Generation of densities       ...        0.1 sec (  0.1%)
Orbital improvement steps
   Orbital gradient              ...        0.1 sec (  0.1%)
   O(1) converger                ...        0.4 sec (  0.6%)
Properties                       ...        8.4 sec ( 13.1%)
   SOC integral calculation      ...        4.3 sec (  6.7%)
   SSC RMEs (incl. integrals)    ...        0.0 sec (  0.0%)
   SOC RMEs                      ...        0.1 sec (  0.1%)

Maximum memory used throughout the entire CASSCF-calculation: 248.4 MB

-------------------------   --------------------
FINAL SINGLE POINT ENERGY     -1503.697770627864
-------------------------   --------------------


                            ***************************************
                            *     ORCA property calculations      *
                            ***************************************

                                    ---------------------
                                    Active property flags
                                    ---------------------
   (+) Dipole Moment


------------------------------------------------------------------------------
                       ORCA ELECTRIC PROPERTIES CALCULATION
------------------------------------------------------------------------------

Dipole Moment Calculation                       ... on
Quadrupole Moment Calculation                   ... off
Polarizability Calculation                      ... off
GBWName                                         ... rho.gbw
Electron density                                ... rho.scfp
The origin for moment calculation is the CENTER OF MASS  = (-0.000000, -0.000115  0.000049)

-------------
DIPOLE MOMENT
-------------
                                X             Y             Z
Electronic contribution:     -0.00000      -0.00052       0.00021
Nuclear contribution   :      0.00000       0.00060      -0.00025
                        -----------------------------------------
Total Dipole Moment    :     -0.00000       0.00007      -0.00004
                        -----------------------------------------
Magnitude (a.u.)       :      0.00008
Magnitude (Debye)      :      0.00021



--------------------
Rotational spectrum 
--------------------
 
Rotational constants in cm-1:     3.072118     0.114415     0.114415 
Rotational constants in MHz : 92099.793285  3430.072895  3430.071180 

 Dipole components along the rotational axes: 
x,y,z [a.u.] :     0.000000    -0.000018     0.000082 
x,y,z [Debye]:     0.000000    -0.000047     0.000208 

 

Timings for individual modules:

Sum of individual times         ...       88.593 sec (=   1.477 min)
GTO integral calculation        ...        5.308 sec (=   0.088 min)   6.0 %
Relativistic integrals          ...        5.522 sec (=   0.092 min)   6.2 %
SCF iterations                  ...        4.916 sec (=   0.082 min)   5.5 %
CASSCF iterations               ...       72.847 sec (=   1.214 min)  82.2 %
                             ****ORCA TERMINATED NORMALLY****
TOTAL RUN TIME: 0 days 0 hours 1 minutes 32 seconds 734 msec
