
                                 *****************
                                 * O   R   C   A *
                                 *****************

                                            #,                                       
                                            ###                                      
                                            ####                                     
                                            #####                                    
                                            ######                                   
                                           ########,                                 
                                     ,,################,,,,,                         
                               ,,#################################,,                 
                          ,,##########################################,,             
                       ,#########################################, ''#####,          
                    ,#############################################,,   '####,        
                  ,##################################################,,,,####,       
                ,###########''''           ''''###############################       
              ,#####''   ,,,,##########,,,,          '''####'''          '####       
            ,##' ,,,,###########################,,,                        '##       
           ' ,,###''''                  '''############,,,                           
         ,,##''                                '''############,,,,        ,,,,,,###''
      ,#''                                            '''#######################'''  
     '                                                          ''''####''''         
             ,#######,   #######,   ,#######,      ##                                
            ,#'     '#,  ##    ##  ,#'     '#,    #''#        ######   ,####,        
            ##       ##  ##   ,#'  ##            #'  '#       #        #'  '#        
            ##       ##  #######   ##           ,######,      #####,   #    #        
            '#,     ,#'  ##    ##  '#,     ,#' ,#      #,         ##   #,  ,#        
             '#######'   ##     ##  '#######'  #'      '#     #####' # '####'        



                  #######################################################
                  #                        -***-                        #
                  #          Department of theory and spectroscopy      #
                  #    Directorship and core code : Frank Neese         #
                  #        Max Planck Institute fuer Kohlenforschung    #
                  #                Kaiser Wilhelm Platz 1               #
                  #                 D-45470 Muelheim/Ruhr               #
                  #                      Germany                        #
                  #                                                     #
                  #                  All rights reserved                #
                  #                        -***-                        #
                  #######################################################


                         Program Version 5.0.4 -  RELEASE  -


 With contributions from (in alphabetic order):
   Daniel Aravena         : Magnetic Suceptibility
   Michael Atanasov       : Ab Initio Ligand Field Theory (pilot matlab implementation)
   Alexander A. Auer      : GIAO ZORA, VPT2 properties, NMR spectrum
   Ute Becker             : Parallelization
   Giovanni Bistoni       : ED, misc. LED, open-shell LED, HFLD
   Martin Brehm           : Molecular dynamics
   Dmytro Bykov           : SCF Hessian
   Vijay G. Chilkuri      : MRCI spin determinant printing, contributions to CSF-ICE
   Dipayan Datta          : RHF DLPNO-CCSD density
   Achintya Kumar Dutta   : EOM-CC, STEOM-CC
   Dmitry Ganyushin       : Spin-Orbit,Spin-Spin,Magnetic field MRCI
   Miquel Garcia          : C-PCM and meta-GGA Hessian, CC/C-PCM, Gaussian charge scheme
   Yang Guo               : DLPNO-NEVPT2, F12-NEVPT2, CIM, IAO-localization
   Andreas Hansen         : Spin unrestricted coupled pair/coupled cluster methods
   Benjamin Helmich-Paris : MC-RPA, TRAH-SCF, COSX integrals
   Lee Huntington         : MR-EOM, pCC
   Robert Izsak           : Overlap fitted RIJCOSX, COSX-SCS-MP3, EOM
   Marcus Kettner         : VPT2
   Christian Kollmar      : KDIIS, OOCD, Brueckner-CCSD(T), CCSD density, CASPT2, CASPT2-K
   Simone Kossmann        : Meta GGA functionals, TD-DFT gradient, OOMP2, MP2 Hessian
   Martin Krupicka        : Initial AUTO-CI
   Lucas Lang             : DCDCAS
   Marvin Lechner         : AUTO-CI (C++ implementation), FIC-MRCC
   Dagmar Lenk            : GEPOL surface, SMD
   Dimitrios Liakos       : Extrapolation schemes; Compound Job, initial MDCI parallelization
   Dimitrios Manganas     : Further ROCIS development; embedding schemes
   Dimitrios Pantazis     : SARC Basis sets
   Anastasios Papadopoulos: AUTO-CI, single reference methods and gradients
   Taras Petrenko         : DFT Hessian,TD-DFT gradient, ASA, ECA, R-Raman, ABS, FL, XAS/XES, NRVS
   Peter Pinski           : DLPNO-MP2, DLPNO-MP2 Gradient
   Christoph Reimann      : Effective Core Potentials
   Marius Retegan         : Local ZFS, SOC
   Christoph Riplinger    : Optimizer, TS searches, QM/MM, DLPNO-CCSD(T), (RO)-DLPNO pert. Triples
   Tobias Risthaus        : Range-separated hybrids, TD-DFT gradient, RPA, STAB
   Michael Roemelt        : Original ROCIS implementation
   Masaaki Saitow         : Open-shell DLPNO-CCSD energy and density
   Barbara Sandhoefer     : DKH picture change effects
   Avijit Sen             : IP-ROCIS
   Kantharuban Sivalingam : CASSCF convergence, NEVPT2, FIC-MRCI
   Bernardo de Souza      : ESD, SOC TD-DFT
   Georgi Stoychev        : AutoAux, RI-MP2 NMR, DLPNO-MP2 response
   Willem Van den Heuvel  : Paramagnetic NMR
   Boris Wezisla          : Elementary symmetry handling
   Frank Wennmohs         : Technical directorship


 We gratefully acknowledge several colleagues who have allowed us to
 interface, adapt or use parts of their codes:
   Stefan Grimme, W. Hujo, H. Kruse, P. Pracht,  : VdW corrections, initial TS optimization,
                  C. Bannwarth, S. Ehlert          DFT functionals, gCP, sTDA/sTD-DF
   Ed Valeev, F. Pavosevic, A. Kumar             : LibInt (2-el integral package), F12 methods
   Garnet Chan, S. Sharma, J. Yang, R. Olivares  : DMRG
   Ulf Ekstrom                                   : XCFun DFT Library
   Mihaly Kallay                                 : mrcc  (arbitrary order and MRCC methods)
   Jiri Pittner, Ondrej Demel                    : Mk-CCSD
   Frank Weinhold                                : gennbo (NPA and NBO analysis)
   Christopher J. Cramer and Donald G. Truhlar   : smd solvation model
   Lars Goerigk                                  : TD-DFT with DH, B97 family of functionals
   V. Asgeirsson, H. Jonsson                     : NEB implementation
   FAccTs GmbH                                   : IRC, NEB, NEB-TS, DLPNO-Multilevel, CI-OPT
                                                   MM, QMMM, 2- and 3-layer-ONIOM, Crystal-QMMM,
                                                   LR-CPCM, SF, NACMEs, symmetry and pop. for TD-DFT,
                                                   nearIR, NL-DFT gradient (VV10), updates on ESD,
                                                   ML-optimized integration grids
   S Lehtola, MJT Oliveira, MAL Marques          : LibXC Library
   Liviu Ungur et al                             : ANISO software


 Your calculation uses the libint2 library for the computation of 2-el integrals
 For citations please refer to: http://libint.valeyev.net

 Your ORCA version has been built with support for libXC version: 5.1.0
 For citations please refer to: https://tddft.org/programs/libxc/

 This ORCA versions uses:
   CBLAS   interface :  Fast vector & matrix operations
   LAPACKE interface :  Fast linear algebra routines
   SCALAPACK package :  Parallel linear algebra routines
   Shared memory     :  Shared parallel matrices
   BLAS/LAPACK       :  OpenBLAS 0.3.15  USE64BITINT DYNAMIC_ARCH NO_AFFINITY Zen SINGLE_THREADED
        Core in use  :  Zen
   Copyright (c) 2011-2014, The OpenBLAS Project




***************************************
The coordinates will be read from file: geo.xyz
***************************************


================================================================================

----- Orbital basis set information -----
Your calculation utilizes the basis: DKH-def2-TZVPP
   Exponents from def2-TZVPP [F. Weigend and R. Ahlrichs, Phys. Chem. Chem. Phys. 7, 3297 (2005)],
   recontracted for DKH2 by D. A. Pantazis.

----- AuxJ basis set information -----
Your calculation utilizes the AutoAux generation procedure.
  G. L. Stoychev, A. A. Auer, F. Neese, J. Chem. Theory Comput. 13, 554 (2017)

----- AuxC basis set information -----
Your calculation utilizes the AutoAux generation procedure.
  G. L. Stoychev, A. A. Auer, F. Neese, J. Chem. Theory Comput. 13, 554 (2017)

----- AuxJK basis set information -----
Your calculation utilizes the AutoAux generation procedure.
  G. L. Stoychev, A. A. Auer, F. Neese, J. Chem. Theory Comput. 13, 554 (2017)

================================================================================
                                        WARNINGS
                       Please study these warnings very carefully!
================================================================================


INFO   : the flag for use of the SHARK integral package has been found!

================================================================================
                                       INPUT FILE
================================================================================
NAME = rho.inp
|  1> !CASSCF  DKH DKH-def2-TZVPP  RIJCOSX NoSFitting VeryTightSCF autoaux moread SlowConv
|  2> %moinp "orb.gbw"
|  3> %pal
|  4> nprocs 40
|  5> end
|  6> %maxcore 4000
|  7> # swap
|  8> #%scf
|  9> # Rotate
| 10> #  { 17, 22 }
| 11> # end
| 12> #end
| 13> #
| 14> %rel
| 15>  picturechange 2
| 16> end
| 17> %casscf
| 18>  nel  7
| 19>  norb 5
| 20>  mult 4,2
| 21>  nroots 10,40
| 22>  maxiter 100
| 23>  ActOrbs dOrbs
| 24>  rel
| 25>   printlevel 3
| 26>   dosoc true
| 27>   gtensor true
| 28>   quad true
| 29>  end
| 30> end
| 31> * xyzfile 0 4 geo.xyz *
| 32> 
| 33>                          ****END OF INPUT****
================================================================================

                       ****************************
                       * Single Point Calculation *
                       ****************************

---------------------------------
CARTESIAN COORDINATES (ANGSTROEM)
---------------------------------
  Co     0.003400   -0.644724    0.267030
  C      1.844501   -0.019377   -0.040740
  H      2.569506   -0.797433    0.250762
  H      2.039291    0.886160    0.554750
  H      1.987142    0.214095   -1.107391
  C     -1.844430   -0.002318    0.050600
  H     -2.000462    0.905313    0.654206
  H     -2.561054   -0.773613    0.378645
  H     -2.037893    0.231896   -1.007862

----------------------------
CARTESIAN COORDINATES (A.U.)
----------------------------
  NO LB      ZA    FRAG     MASS         X           Y           Z
   0 Co   27.0000    0    58.930    0.006424   -1.218352    0.504614
   1 C     6.0000    0    12.011    3.485603   -0.036617   -0.076988
   2 H     1.0000    0     1.008    4.855662   -1.506929    0.473871
   3 H     1.0000    0     1.008    3.853702    1.674600    1.048325
   4 H     1.0000    0     1.008    3.755154    0.404581   -2.092666
   5 C     6.0000    0    12.011   -3.485468   -0.004380    0.095619
   6 H     1.0000    0     1.008   -3.780326    1.710793    1.236270
   7 H     1.0000    0     1.008   -4.839691   -1.461916    0.715535
   8 H     1.0000    0     1.008   -3.851060    0.438219   -1.904583

--------------------------------
INTERNAL COORDINATES (ANGSTROEM)
--------------------------------
 Co     0   0   0     0.000000000000     0.00000000     0.00000000
 C      1   0   0     1.968613165283     0.00000000     0.00000000
 H      2   1   0     1.102712550599   110.45212251     0.00000000
 H      2   1   3     1.101157921129   110.00598506   239.97686812
 H      2   1   3     1.101181198403   109.87262961   119.90157812
 C      1   2   3     1.968248957779   139.21268049   180.56283997
 H      6   1   2     1.101126347339   109.98571053   299.50946142
 H      6   1   2     1.102751116876   110.43220867   179.48265677
 H      6   1   2     1.101191942279   109.87988903    59.58636659

---------------------------
INTERNAL COORDINATES (A.U.)
---------------------------
 Co     0   0   0     0.000000000000     0.00000000     0.00000000
 C      1   0   0     3.720139746017     0.00000000     0.00000000
 H      2   1   0     2.083824725070   110.45212251     0.00000000
 H      2   1   3     2.080886901132   110.00598506   239.97686812
 H      2   1   3     2.080930888805   109.87262961   119.90157812
 C      1   2   3     3.719451493578   139.21268049   180.56283997
 H      6   1   2     2.080827235316   109.98571053   299.50946142
 H      6   1   2     2.083897604771   110.43220867   179.48265677
 H      6   1   2     2.080951191788   109.87988903    59.58636659

---------------------
BASIS SET INFORMATION
---------------------
There are 3 groups of distinct atoms

 Group   1 Type Co  : 17s12p7d2f1g contracted to 10s7p4d2f1g pattern {8111111111/6111111/4111/11/1}
 Group   2 Type C   : 11s6p2d1f contracted to 6s3p2d1f pattern {611111/411/11/1}
 Group   3 Type H   : 5s2p1d contracted to 3s2p1d pattern {311/11/1}

Atom   0Co   basis set group =>   1
Atom   1C    basis set group =>   2
Atom   2H    basis set group =>   3
Atom   3H    basis set group =>   3
Atom   4H    basis set group =>   3
Atom   5C    basis set group =>   2
Atom   6H    basis set group =>   3
Atom   7H    basis set group =>   3
Atom   8H    basis set group =>   3
---------------------------------
AUXILIARY/J BASIS SET INFORMATION
---------------------------------
There are 3 groups of distinct atoms

 Group   1 Type Co  : 22s18p17d17f16g6h3i contracted to 22s18p17d17f16g6h3i pattern {1111111111111111111111/111111111111111111/11111111111111111/11111111111111111/1111111111111111/111111/111}
 Group   2 Type C   : 16s13p12d7f3g contracted to 16s13p12d7f3g pattern {1111111111111111/1111111111111/111111111111/1111111/111}
 Group   3 Type H   : 11s4p3d2f contracted to 11s4p3d2f pattern {11111111111/1111/111/11}

Atom   0Co   basis set group =>   1
Atom   1C    basis set group =>   2
Atom   2H    basis set group =>   3
Atom   3H    basis set group =>   3
Atom   4H    basis set group =>   3
Atom   5C    basis set group =>   2
Atom   6H    basis set group =>   3
Atom   7H    basis set group =>   3
Atom   8H    basis set group =>   3
---------------------------------
AUXILIARY/C BASIS SET INFORMATION
---------------------------------
There are 3 groups of distinct atoms

 Group   1 Type Co  : 22s18p17d17f16g6h3i contracted to 22s18p17d17f16g6h3i pattern {1111111111111111111111/111111111111111111/11111111111111111/11111111111111111/1111111111111111/111111/111}
 Group   2 Type C   : 16s13p12d7f3g contracted to 16s13p12d7f3g pattern {1111111111111111/1111111111111/111111111111/1111111/111}
 Group   3 Type H   : 11s4p3d2f contracted to 11s4p3d2f pattern {11111111111/1111/111/11}

Atom   0Co   basis set group =>   1
Atom   1C    basis set group =>   2
Atom   2H    basis set group =>   3
Atom   3H    basis set group =>   3
Atom   4H    basis set group =>   3
Atom   5C    basis set group =>   2
Atom   6H    basis set group =>   3
Atom   7H    basis set group =>   3
Atom   8H    basis set group =>   3
----------------------------------
AUXILIARY/JK BASIS SET INFORMATION
----------------------------------
There are 3 groups of distinct atoms

 Group   1 Type Co  : 22s18p17d17f16g6h3i contracted to 22s18p17d17f16g6h3i pattern {1111111111111111111111/111111111111111111/11111111111111111/11111111111111111/1111111111111111/111111/111}
 Group   2 Type C   : 16s13p12d7f3g contracted to 16s13p12d7f3g pattern {1111111111111111/1111111111111/111111111111/1111111/111}
 Group   3 Type H   : 11s4p3d2f contracted to 11s4p3d2f pattern {11111111111/1111/111/11}

Atom   0Co   basis set group =>   1
Atom   1C    basis set group =>   2
Atom   2H    basis set group =>   3
Atom   3H    basis set group =>   3
Atom   4H    basis set group =>   3
Atom   5C    basis set group =>   2
Atom   6H    basis set group =>   3
Atom   7H    basis set group =>   3
Atom   8H    basis set group =>   3


           ************************************************************
           *        Program running with 40 parallel MPI-processes    *
           *              working on a common directory               *
           ************************************************************
------------------------------------------------------------------------------
                           ORCA GTO INTEGRAL CALCULATION
                           -- RI-GTO INTEGRALS CHOSEN --
------------------------------------------------------------------------------
------------------------------------------------------------------------------
                   ___                                                        
                  /   \      - P O W E R E D   B Y -                         
                 /     \                                                     
                 |  |  |   _    _      __       _____    __    __             
                 |  |  |  | |  | |    /  \     |  _  \  |  |  /  |          
                  \  \/   | |  | |   /    \    | | | |  |  | /  /          
                 / \  \   | |__| |  /  /\  \   | |_| |  |  |/  /          
                |  |  |   |  __  | /  /__\  \  |    /   |      \           
                |  |  |   | |  | | |   __   |  |    \   |  |\   \          
                \     /   | |  | | |  |  |  |  | |\  \  |  | \   \       
                 \___/    |_|  |_| |__|  |__|  |_| \__\ |__|  \__/        
                                                                              
                      - O R C A' S   B I G   F R I E N D -                    
                                      &                                       
                       - I N T E G R A L  F E E D E R -                       
                                                                              
 v1 FN, 2020, v2 2021                                                         
------------------------------------------------------------------------------


Reading SHARK input file rho.SHARKINP.tmp ... ok
----------------------
SHARK INTEGRAL PACKAGE
----------------------

Number of atoms                             ...      9
Number of basis functions                   ...    222
Number of shells                            ...     84
Maximum angular momentum                    ...      4
Integral batch strategy                     ... SHARK/LIBINT Hybrid
RI-J (if used) integral strategy            ... SPLIT-RIJ (Revised 2003 algorithm where possible)
Printlevel                                  ...      1
Contraction scheme used                     ... SEGMENTED contraction
Coulomb Range Separation                    ... NOT USED
Exchange Range Separation                   ... NOT USED
Finite Nucleus Model                        ... NOT USED
Auxiliary Coulomb fitting basis             ... AVAILABLE
   # of basis functions in Aux-J            ...   1223
   # of shells in Aux-J                     ...    321
   Maximum angular momentum in Aux-J        ...      6
Auxiliary J/K fitting basis                 ... AVAILABLE
   # of basis functions in Aux-JK           ...   1223
   # of shells in Aux-JK                    ...    321
   Maximum angular momentum in Aux-JK       ...      6
Auxiliary Correlation fitting basis         ... AVAILABLE
   # of basis functions in Aux-C            ...   1223
   # of shells in Aux-C                     ...    321
   Maximum angular momentum in Aux-C        ...      6
Auxiliary 'external' fitting basis          ... NOT available
Integral threshold                          ...     1.000000e-12
Primitive cut-off                           ...     1.000000e-14
Primitive pair pre-selection threshold      ...     1.000000e-14

Calculating pre-screening integrals         ... done (  0.1 sec) Dimension = 84
Organizing shell pair data                  ... done (  0.0 sec)
Shell pair information
Total number of shell pairs                 ...      3570
Shell pairs after pre-screening             ...      3370
Total number of primitive shell pairs       ...      8237
Primitive shell pairs kept                  ...      6593
          la=0 lb=0:    754 shell pairs
          la=1 lb=0:    940 shell pairs
          la=1 lb=1:    314 shell pairs
          la=2 lb=0:    520 shell pairs
          la=2 lb=1:    334 shell pairs
          la=2 lb=2:    100 shell pairs
          la=3 lb=0:    158 shell pairs
          la=3 lb=1:    100 shell pairs
          la=3 lb=2:     56 shell pairs
          la=3 lb=3:     10 shell pairs
          la=4 lb=0:     40 shell pairs
          la=4 lb=1:     25 shell pairs
          la=4 lb=2:     14 shell pairs
          la=4 lb=3:      4 shell pairs
          la=4 lb=4:      1 shell pairs

Calculating one electron integrals          ... done (  0.0 sec)
Calculating RI/J V-Matrix + Cholesky decomp.... done (  0.2 sec)
Calculating RI/JK V-Matrix + Cholesky decomp... done (  0.1 sec)
Calculating RI/C V-Matrix + Cholesky decomp.... done (  0.1 sec)
Calculating Nuclear repulsion               ... done (  0.0 sec) ENN=    150.367781762591 Eh

SHARK setup successfully completed in   1.1 seconds

Maximum memory used throughout the entire GTOINT-calculation: 37.3 MB


           ************************************************************
           *        Program running with 40 parallel MPI-processes    *
           *              working on a common directory               *
           ************************************************************
------------------------------------------------------------------------------
                          ORCA RELATIVISTIC HAMILTONIAN
------------------------------------------------------------------------------

Relativistic Method            ... DKH
Order of DKH treatment         ...   2
Treatment of potential         ... V(e,N)
Eps parameter for DKH          ...   0.00000000010000
Nucleus model                  ... Point Nucleus
Speed of light used            ... 137.03598950000000


            ************************************************
            *        DOUGLAS-KROLL-HESS HAMILTONIAN        *
            *   Programmed by FN according to literature   *
            *        procedures. Special thanks to         *
            *       B.A. Hess, M. Reiher and A. Wolf       *
            *     University Erlangen-Nuernberg/Bonn       *
            ************************************************

Uncontracting the basis (first version)        ... done
Number of contracted basis functions           ...  222
Number of uncontracted basis functions         ...  299
Initializing the DKH file                      ... done
Calculating the relativistic integrals         ... done
Storing DKH matrices                           ... done
Code used for DKH trafo                        ... ORCA
Computing the DKH transformation               ... done
Storing the transformation variables           ... done
Transforming V and pVp to p**2 space           ... done
First transformation of V and pVp              ... done
Second transformation of Veff                  ... done
Adding kinetic energy                          ... done
Back transformation of Veff to r-space         ... done
Recovering DKH matrices                        ... done
Recontracting the H-matrix (first version)     ... done
Computing the DKH correction to the H-matrix   ... done
Reading the original H-matrix                  ... done
Adding DKH correction to the H-matrix          ... done
Storing the new modified H-matrix              ... done

Maximum memory used throughout the entire REL-calculation: 69.0 MB


           ************************************************************
           *        Program running with 40 parallel MPI-processes    *
           *              working on a common directory               *
           ************************************************************
-------------------------------------------------------------------------------
                                 ORCA SCF
-------------------------------------------------------------------------------

------------
SCF SETTINGS
------------
Hamiltonian:
 Ab initio Hamiltonian  Method          .... Hartree-Fock(GTOs)
 RI-approximation to the Coulomb term is turned on
   Number of AuxJ basis functions       .... 1223
   RIJ-COSX (HFX calculated with COS-X)).... on

Relativistic Settings:
 Scalar relativistic method             .... Douglas-Kroll-Hess
 Order of DKH procedure    Order        ....    2
 Mode of DKH-treatment                  .... V=V(e,N)
 Speed of light used       Velit        ....       137.035989
 Cutoff-constant           Eps          ....            1e-10 


General Settings:
 Integral files         IntName         .... rho
 Hartree-Fock type      HFTyp           .... CASSCF
 Total Charge           Charge          ....    0
 Multiplicity           Mult            ....    4
 Number of Electrons    NEL             ....   45
 Basis Dimension        Dim             ....  222
 Nuclear Repulsion      ENuc            ....    150.3677817626 Eh


Diagonalization of the overlap matrix:
Smallest eigenvalue                        ... 4.106e-04
Time for diagonalization                   ...    0.007 sec
Threshold for overlap eigenvalues          ... 1.000e-08
Number of eigenvalues below threshold      ... 0
Time for construction of square roots      ...    0.007 sec
Total time needed                          ...    0.016 sec

---------------------
INITIAL GUESS: MOREAD
---------------------
Guess MOs are being read from file: orb.gbw
Input Geometry matches current geometry (good)
Input basis set matches current basis set (good)
MOs were renormalized
Gram-Schmidt orthogonalization of all MOs with pivot on actives
                      ------------------
                      INITIAL GUESS DONE (   0.1 sec)
                      ------------------
--------------------
COSX GRID GENERATION
--------------------

GRIDX 1
-------
General Integration Accuracy     IntAcc      ... 3.816
Radial Grid Type                 RadialGrid  ... OptM3 with GC (2021)
Angular Grid (max. ang.)         AngularGrid ... 1 (Lebedev-50)
Angular grid pruning method      GridPruning ... 4 (adaptive)
Weight generation scheme         WeightScheme... Becke
Basis function cutoff            BFCut       ... 1.0000e-12
Integration weight cutoff        WCut        ... 1.0000e-14
Angular grids for H and He will be reduced by one unit
Partially contracted basis set               ... on
Rotationally invariant grid construction     ... off

Total number of grid points                  ...     5374
Total number of batches                      ...       87
Average number of points per batch           ...       61
Average number of grid points per atom       ...      597

GRIDX 2
-------
General Integration Accuracy     IntAcc      ... 4.020
Radial Grid Type                 RadialGrid  ... OptM3 with GC (2021)
Angular Grid (max. ang.)         AngularGrid ... 2 (Lebedev-110)
Angular grid pruning method      GridPruning ... 4 (adaptive)
Weight generation scheme         WeightScheme... Becke
Basis function cutoff            BFCut       ... 1.0000e-12
Integration weight cutoff        WCut        ... 1.0000e-14
Angular grids for H and He will be reduced by one unit
Partially contracted basis set               ... on
Rotationally invariant grid construction     ... off

Total number of grid points                  ...    11115
Total number of batches                      ...      178
Average number of points per batch           ...       62
Average number of grid points per atom       ...     1235

GRIDX 3
-------
General Integration Accuracy     IntAcc      ... 4.338
Radial Grid Type                 RadialGrid  ... OptM3 with GC (2021)
Angular Grid (max. ang.)         AngularGrid ... 3 (Lebedev-194)
Angular grid pruning method      GridPruning ... 4 (adaptive)
Weight generation scheme         WeightScheme... Becke
Basis function cutoff            BFCut       ... 1.0000e-12
Integration weight cutoff        WCut        ... 1.0000e-14
Angular grids for H and He will be reduced by one unit
Partially contracted basis set               ... on
Rotationally invariant grid construction     ... off

Total number of grid points                  ...    24488
Total number of batches                      ...      386
Average number of points per batch           ...       63
Average number of grid points per atom       ...     2721

Time for X-Grid setup             =    0.193 sec



 ... the calculation is a CASSCF calculation -I'm leaving here GOOD LUCK!!!



           ************************************************************
           *        Program running with 40 parallel MPI-processes    *
           *              working on a common directory               *
           ************************************************************
-------------------------------------------------------------------------------
                              ORCA-CASSCF
-------------------------------------------------------------------------------

Setting up the integral package       ... done
Setting up the integral package (RI)  ... done
Building the CAS space                ... done (10 configurations for Mult=4)
Building the CAS space                ... done (30 configurations for Mult=2)

SYSTEM-SPECIFIC SETTINGS:
Number of active electrons          ...    7
Number of active orbitals           ...    5
Total number of electrons           ...   45
Total number of orbitals            ...  222
Total number aux. functions         ... 1223

Determined orbital ranges:
   Internal       0 -   18 (  19 orbitals)
   Active        19 -   23 (   5 orbitals)
   External      24 -  221 ( 198 orbitals)
Number of rotation parameters      ...   4847

CI-STEP:
CI strategy                         ... General CI
Number of multiplicity blocks       ...    2
BLOCK  1 WEIGHT=   0.5000
  Multiplicity                      ...    4
  #(Configurations)                 ...   10
  #(CSFs)                           ...   10
  #(Roots)                          ...   10
    ROOT=0 WEIGHT=    0.050000
    ROOT=1 WEIGHT=    0.050000
    ROOT=2 WEIGHT=    0.050000
    ROOT=3 WEIGHT=    0.050000
    ROOT=4 WEIGHT=    0.050000
    ROOT=5 WEIGHT=    0.050000
    ROOT=6 WEIGHT=    0.050000
    ROOT=7 WEIGHT=    0.050000
    ROOT=8 WEIGHT=    0.050000
    ROOT=9 WEIGHT=    0.050000

BLOCK  2 WEIGHT=   0.5000
  Multiplicity                      ...    2
  #(Configurations)                 ...   30
  #(CSFs)                           ...   40
  #(Roots)                          ...   40
    ROOT=0 WEIGHT=    0.012500
    ROOT=1 WEIGHT=    0.012500
    ROOT=2 WEIGHT=    0.012500
    ROOT=3 WEIGHT=    0.012500
    ROOT=4 WEIGHT=    0.012500
    ROOT=5 WEIGHT=    0.012500
    ROOT=6 WEIGHT=    0.012500
    ROOT=7 WEIGHT=    0.012500
    ROOT=8 WEIGHT=    0.012500
    ROOT=9 WEIGHT=    0.012500
    ROOT=10 WEIGHT=    0.012500
    ROOT=11 WEIGHT=    0.012500
    ROOT=12 WEIGHT=    0.012500
    ROOT=13 WEIGHT=    0.012500
    ROOT=14 WEIGHT=    0.012500
    ROOT=15 WEIGHT=    0.012500
    ROOT=16 WEIGHT=    0.012500
    ROOT=17 WEIGHT=    0.012500
    ROOT=18 WEIGHT=    0.012500
    ROOT=19 WEIGHT=    0.012500
    ROOT=20 WEIGHT=    0.012500
    ROOT=21 WEIGHT=    0.012500
    ROOT=22 WEIGHT=    0.012500
    ROOT=23 WEIGHT=    0.012500
    ROOT=24 WEIGHT=    0.012500
    ROOT=25 WEIGHT=    0.012500
    ROOT=26 WEIGHT=    0.012500
    ROOT=27 WEIGHT=    0.012500
    ROOT=28 WEIGHT=    0.012500
    ROOT=29 WEIGHT=    0.012500
    ROOT=30 WEIGHT=    0.012500
    ROOT=31 WEIGHT=    0.012500
    ROOT=32 WEIGHT=    0.012500
    ROOT=33 WEIGHT=    0.012500
    ROOT=34 WEIGHT=    0.012500
    ROOT=35 WEIGHT=    0.012500
    ROOT=36 WEIGHT=    0.012500
    ROOT=37 WEIGHT=    0.012500
    ROOT=38 WEIGHT=    0.012500
    ROOT=39 WEIGHT=    0.012500

  PrintLevel                        ...    1
  N(GuessMat)                       ...       512
  MaxDim(CI)                        ...        10
  MaxIter(CI)                       ...        64
  Energy Tolerance CI               ...  1.00e-09
  Residual Tolerance CI             ...  1.00e-09
  Shift(CI)                         ...  1.00e-04

INTEGRAL-TRANSFORMATION-STEP:
  Algorithm                         ... RI-MO

ORBITAL-IMPROVEMENT-STEP:
  Algorithm                         ... SuperCI
  Default Parametrization           ... CAYLEY
  Act-Act rotations                 ... depends on algorithm used
  FreezeIE                          ... 95.00% of ||g||
  Until reaching FreezeIE rotations with active orbitals are damped. 

  Approx. Fock at                   ... 0.000000e+00 density convergence
  Level shift                       ... energy gap dependent. Minimum=1.000
  Switch step at gradient           ...  3.00e-02 
  Switch step at iteration          ...        50   
  Switch step to                    ... DIIS    

SCF-SETTINGS:
  Incremental                       ... off
  RIJCOSX approximation             ... on
  UseFinalGrid                      ... on
  RI-JK approximation               ... off
  AO integral handling              ... DIRECT
  Integral Neglect Thresh           ...  1.00e-12
  Primitive cutoff TCut             ...  1.00e-14
  Energy convergence tolerance      ...  1.00e-08
  Orbital gradient convergence      ...  1.00e-05
  Max. number of iterations         ...       100  


PROPERTIES-SETTINGS:
  Spin orbit coupling               ... true
  GTensor                           ... true

FINAL ORBITALS:
  Active   Orbitals                 ... d-orbitals 
  Internal Orbitals                 ... canonical 
  External Orbitals                 ... canonical 

------------------
CAS-SCF ITERATIONS
------------------


MACRO-ITERATION   1: 
   --- Canonicalize Internal Space
   --- Canonicalize External Space
   --- Inactive Energy E0 = -1448.73559307 Eh
CI-ITERATION   0: 
 -1471.065519711   0.000000000000 (    0.00)
 -1471.064521781   0.000000000000
 -1471.063208966   0.000000000000
 -1471.062498557   0.000000000000
 -1471.054665120   0.000000000000
 -1471.054450771   0.000000000000
 -1471.052475031   0.000000000000
 -1470.988724299   0.000000000000
 -1470.977578145   0.000000000000
 -1470.968698106   0.000000000000
   CI-PROBLEM SOLVED
   DENSITIES MADE
CI-ITERATION   0: 
 -1470.986108957   0.000000000000 (    0.01)
 -1470.985750067   0.000000000000
 -1470.984143020   0.000000000000
 -1470.983130588   0.000000000000
 -1470.982383013   0.000000000000
 -1470.980146620   0.000000000000
 -1470.979000813   0.000000000000
 -1470.976445327   0.000000000000
 -1470.976113367   0.000000000000
 -1470.967522388   0.000000000000
 -1470.967395548   0.000000000000
 -1470.962256224   0.000000000000
 -1470.959468128   0.000000000000
 -1470.959345193   0.000000000000
 -1470.958731234   0.000000000000
 -1470.956564783   0.000000000000
 -1470.951609162   0.000000000000
 -1470.949444945   0.000000000000
 -1470.949361062   0.000000000000
 -1470.949243368   0.000000000000
 -1470.946097434   0.000000000000
 -1470.941193731   0.000000000000
 -1470.941134692   0.000000000000
 -1470.938781888   0.000000000000
 -1470.937774900   0.000000000000
 -1470.937384591   0.000000000000
 -1470.935983535   0.000000000000
 -1470.934476553   0.000000000000
 -1470.878080684   0.000000000000
 -1470.876503523   0.000000000000
 -1470.873773530   0.000000000000
 -1470.871497387   0.000000000000
 -1470.871020079   0.000000000000
 -1470.866904588   0.000000000000
 -1470.866891748   0.000000000000
 -1470.776758887   0.000000000000
 -1470.773534954   0.000000000000
 -1470.771238617   0.000000000000
 -1470.749190869   0.000000000000
 -1470.748618168   0.000000000000
   CI-PROBLEM SOLVED
   DENSITIES MADE

                 <<<<<<<<<<<<<<<<<<INITIAL CI STATE CHECK>>>>>>>>>>>>>>>>>>

BLOCK  1 MULT= 4 NROOTS=10 
ROOT   0:  E=   -1471.0655197107 Eh
      0.61516 [     0]: 11122
      0.19968 [     2]: 11221
      0.07131 [     8]: 21211
      0.04024 [     4]: 12121
      0.02549 [     1]: 11212
      0.02148 [     9]: 22111
      0.01574 [     7]: 21121
      0.00752 [     6]: 21112
      0.00277 [     5]: 12211
ROOT   1:  E=   -1471.0645217811 Eh  0.027 eV    219.0 cm**-1
      0.30467 [     1]: 11212
      0.25767 [     2]: 11221
      0.21203 [     7]: 21121
      0.05890 [     6]: 21112
      0.05768 [     4]: 12121
      0.05050 [     3]: 12112
      0.04894 [     0]: 11122
      0.00770 [     5]: 12211
ROOT   2:  E=   -1471.0632089657 Eh  0.063 eV    507.1 cm**-1
      0.39561 [     3]: 12112
      0.29775 [     4]: 12121
      0.15178 [     5]: 12211
      0.09905 [     1]: 11212
      0.04658 [     2]: 11221
      0.00879 [     0]: 11122
ROOT   3:  E=   -1471.0624985569 Eh  0.082 eV    663.1 cm**-1
      0.59759 [     5]: 12211
      0.13639 [     3]: 12112
      0.10736 [     1]: 11212
      0.06168 [     9]: 22111
      0.03162 [     8]: 21211
      0.02323 [     4]: 12121
      0.01986 [     2]: 11221
      0.01774 [     0]: 11122
      0.00358 [     6]: 21112
ROOT   4:  E=   -1471.0546651204 Eh  0.295 eV   2382.3 cm**-1
      0.32200 [     8]: 21211
      0.23916 [     6]: 21112
      0.15211 [     2]: 11221
      0.13249 [     9]: 22111
      0.05180 [     4]: 12121
      0.04007 [     0]: 11122
      0.02333 [     5]: 12211
      0.01989 [     3]: 12112
      0.01673 [     1]: 11212
ROOT   5:  E=   -1471.0544507706 Eh  0.301 eV   2429.4 cm**-1
      0.48501 [     7]: 21121
      0.29109 [     1]: 11212
      0.10748 [     3]: 12112
      0.04374 [     8]: 21211
      0.04227 [     6]: 21112
      0.01157 [     0]: 11122
      0.01101 [     2]: 11221
      0.00548 [     5]: 12211
ROOT   6:  E=   -1471.0524750311 Eh  0.355 eV   2863.0 cm**-1
      0.56359 [     9]: 22111
      0.21310 [     6]: 21112
      0.05755 [     0]: 11122
      0.05200 [     2]: 11221
      0.04595 [     7]: 21121
      0.03349 [     3]: 12112
      0.02633 [     5]: 12211
      0.00750 [     1]: 11212
ROOT   7:  E=   -1470.9887242993 Eh  2.090 eV  16854.6 cm**-1
      0.19311 [     6]: 21112
      0.16018 [     2]: 11221
      0.12866 [     7]: 21121
      0.12449 [     1]: 11212
      0.11031 [     0]: 11122
      0.10337 [     3]: 12112
      0.08149 [     8]: 21211
      0.04012 [     5]: 12211
      0.03558 [     4]: 12121
      0.02268 [     9]: 22111
ROOT   8:  E=   -1470.9775781454 Eh  2.393 eV  19300.9 cm**-1
      0.44613 [     4]: 12121
      0.13313 [     5]: 12211
      0.13297 [     8]: 21211
      0.13119 [     3]: 12112
      0.06941 [     6]: 21112
      0.05454 [     2]: 11221
      0.02344 [     1]: 11212
      0.00432 [     0]: 11122
      0.00256 [     9]: 22111
ROOT   9:  E=   -1470.9686981064 Eh  2.635 eV  21249.9 cm**-1
      0.31524 [     8]: 21211
      0.19401 [     9]: 22111
      0.17293 [     6]: 21112
      0.10689 [     7]: 21121
      0.08554 [     0]: 11122
      0.04636 [     2]: 11221
      0.04558 [     4]: 12121
      0.02149 [     3]: 12112
      0.01177 [     5]: 12211

BLOCK  2 MULT= 2 NROOTS=40 
ROOT   0:  E=   -1470.9861089574 Eh
      0.37879 [     0]: 01222
      0.08729 [     5]: 11122
      0.07851 [     3]: 02221
      0.06643 [     7]: 11221
      0.05626 [    12]: 12211
      0.04743 [    26]: 22111
      0.03330 [    17]: 21022
      0.02946 [     9]: 12112
      0.02814 [    28]: 22201
      0.02781 [     2]: 02212
      0.02749 [    13]: 12220
      0.02489 [    21]: 21211
      0.02438 [    25]: 22102
      0.01776 [    10]: 12121
      0.01463 [    18]: 21112
      0.01212 [     4]: 10222
      0.00935 [    22]: 21220
      0.00889 [    27]: 22120
      0.00478 [    20]: 21202
      0.00466 [    23]: 22012
      0.00416 [    19]: 21121
      0.00269 [     1]: 02122
      0.00255 [    14]: 20122
ROOT   1:  E=   -1470.9857500665 Eh  0.010 eV     78.8 cm**-1
      0.21861 [     5]: 11122
      0.18054 [     7]: 11221
      0.13158 [     2]: 02212
      0.06872 [    18]: 21112
      0.05469 [     1]: 02122
      0.03889 [    19]: 21121
      0.03632 [     3]: 02221
      0.03310 [    29]: 22210
      0.03292 [     8]: 12022
      0.02699 [    12]: 12211
      0.02687 [     4]: 10222
      0.02266 [     9]: 12112
      0.01915 [     0]: 01222
      0.01696 [    21]: 21211
      0.01320 [    28]: 22201
      0.01267 [     6]: 11212
      0.01232 [    25]: 22102
      0.01218 [    10]: 12121
      0.01129 [    26]: 22111
      0.00855 [    16]: 20221
      0.00652 [    17]: 21022
      0.00606 [    20]: 21202
      0.00428 [    15]: 20212
ROOT   2:  E=   -1470.9841430204 Eh  0.053 eV    431.5 cm**-1
      0.17049 [     7]: 11221
      0.16257 [     5]: 11122
      0.14320 [     6]: 11212
      0.08523 [     9]: 12112
      0.08227 [     4]: 10222
      0.06808 [    12]: 12211
      0.06398 [    26]: 22111
      0.03409 [    10]: 12121
      0.03083 [    16]: 20221
      0.02682 [    17]: 21022
      0.02637 [    13]: 12220
      0.02314 [    22]: 21220
      0.01514 [    23]: 22012
      0.01213 [     8]: 12022
      0.01200 [    11]: 12202
      0.01115 [    27]: 22120
      0.00668 [     1]: 02122
      0.00644 [    18]: 21112
      0.00454 [    29]: 22210
      0.00345 [    28]: 22201
      0.00288 [     3]: 02221
ROOT   3:  E=   -1470.9831305883 Eh  0.081 eV    653.7 cm**-1
      0.17926 [    12]: 12211
      0.14811 [    14]: 20122
      0.13229 [     1]: 02122
      0.08732 [     6]: 11212
      0.08482 [    19]: 21121
      0.05857 [     3]: 02221
      0.05621 [    10]: 12121
      0.04302 [     0]: 01222
      0.02886 [    11]: 12202
      0.02264 [    17]: 21022
      0.01969 [    27]: 22120
      0.01930 [    21]: 21211
      0.01588 [    24]: 22021
      0.01413 [     9]: 12112
      0.01346 [     7]: 11221
      0.01171 [     5]: 11122
      0.01042 [     4]: 10222
      0.00847 [     2]: 02212
      0.00838 [    16]: 20221
      0.00810 [    26]: 22111
      0.00580 [    25]: 22102
      0.00577 [    29]: 22210
      0.00508 [    15]: 20212
      0.00418 [    18]: 21112
      0.00349 [    23]: 22012
      0.00257 [    20]: 21202
ROOT   4:  E=   -1470.9823830133 Eh  0.101 eV    817.8 cm**-1
      0.17400 [     2]: 02212
      0.13671 [     9]: 12112
      0.12954 [    19]: 21121
      0.12009 [    10]: 12121
      0.08906 [    15]: 20212
      0.06775 [    16]: 20221
      0.04249 [    14]: 20122
      0.02966 [    12]: 12211
      0.02905 [    27]: 22120
      0.02575 [     6]: 11212
      0.02020 [    26]: 22111
      0.01567 [    24]: 22021
      0.01480 [    22]: 21220
      0.01321 [     7]: 11221
      0.01314 [     3]: 02221
      0.01214 [    18]: 21112
      0.01174 [     0]: 01222
      0.01079 [    13]: 12220
      0.01075 [     5]: 11122
      0.00915 [    23]: 22012
      0.00825 [     8]: 12022
      0.00652 [    17]: 21022
      0.00628 [    25]: 22102
ROOT   5:  E=   -1470.9801466203 Eh  0.162 eV   1308.6 cm**-1
      0.16001 [     5]: 11122
      0.12990 [     4]: 10222
      0.12707 [    26]: 22111
      0.08600 [    10]: 12121
      0.07575 [     7]: 11221
      0.06907 [     2]: 02212
      0.06867 [    21]: 21211
      0.03763 [    15]: 20212
      0.03758 [     8]: 12022
      0.03123 [    19]: 21121
      0.03041 [    24]: 22021
      0.02531 [    28]: 22201
      0.02084 [    18]: 21112
      0.01805 [    20]: 21202
      0.01672 [     9]: 12112
      0.01421 [    13]: 12220
      0.01120 [     0]: 01222
      0.01059 [     1]: 02122
      0.01040 [    14]: 20122
      0.00708 [    12]: 12211
      0.00460 [     3]: 02221
      0.00340 [    11]: 12202
ROOT   6:  E=   -1470.9790008129 Eh  0.193 eV   1560.1 cm**-1
      0.20984 [     6]: 11212
      0.16356 [     7]: 11221
      0.08700 [    19]: 21121
      0.08030 [    24]: 22021
      0.06076 [    11]: 12202
      0.05456 [    27]: 22120
      0.05019 [    23]: 22012
      0.04735 [     4]: 10222
      0.03934 [    25]: 22102
      0.03516 [    18]: 21112
      0.02937 [    16]: 20221
      0.02217 [    17]: 21022
      0.01801 [    29]: 22210
      0.01798 [    12]: 12211
      0.01570 [    28]: 22201
      0.01332 [    15]: 20212
      0.01088 [    10]: 12121
      0.00887 [    26]: 22111
      0.00766 [     5]: 11122
      0.00624 [    21]: 21211
      0.00591 [    22]: 21220
      0.00474 [    20]: 21202
      0.00444 [     9]: 12112
      0.00319 [    13]: 12220
ROOT   7:  E=   -1470.9764453271 Eh  0.263 eV   2120.9 cm**-1
      0.13831 [    11]: 12202
      0.10214 [     6]: 11212
      0.09912 [    22]: 21220
      0.07394 [     1]: 02122
      0.07147 [    17]: 21022
      0.06724 [    13]: 12220
      0.06146 [    19]: 21121
      0.05302 [    18]: 21112
      0.04761 [    12]: 12211
      0.04511 [     0]: 01222
      0.04368 [    26]: 22111
      0.04154 [     9]: 12112
      0.02741 [     3]: 02221
      0.02440 [    10]: 12121
      0.01296 [     5]: 11122
      0.01276 [    24]: 22021
      0.01142 [    25]: 22102
      0.00924 [     8]: 12022
      0.00879 [    14]: 20122
      0.00820 [     4]: 10222
      0.00775 [    27]: 22120
      0.00738 [    23]: 22012
      0.00706 [     2]: 02212
      0.00622 [    21]: 21211
      0.00603 [    20]: 21202
      0.00388 [    16]: 20221
ROOT   8:  E=   -1470.9761133667 Eh  0.272 eV   2193.8 cm**-1
      0.15793 [     9]: 12112
      0.09379 [    12]: 12211
      0.08664 [    21]: 21211
      0.08070 [     6]: 11212
      0.06927 [     8]: 12022
      0.06799 [    18]: 21112
      0.06333 [    19]: 21121
      0.06000 [    26]: 22111
      0.05926 [     7]: 11221
      0.05906 [     3]: 02221
      0.05636 [    10]: 12121
      0.02839 [    28]: 22201
      0.02091 [    13]: 12220
      0.01649 [    14]: 20122
      0.01578 [    29]: 22210
      0.01405 [     2]: 02212
      0.01143 [    11]: 12202
      0.01020 [     5]: 11122
      0.00746 [     0]: 01222
      0.00475 [    17]: 21022
      0.00409 [    15]: 20212
      0.00384 [    22]: 21220
      0.00295 [    16]: 20221
ROOT   9:  E=   -1470.9675223876 Eh  0.506 eV   4079.3 cm**-1
      0.24916 [     9]: 12112
      0.20002 [     6]: 11212
      0.18078 [    12]: 12211
      0.06851 [     7]: 11221
      0.04336 [     3]: 02221
      0.03632 [    19]: 21121
      0.03110 [    26]: 22111
      0.02888 [     5]: 11122
      0.02671 [     1]: 02122
      0.02507 [    24]: 22021
      0.01783 [     8]: 12022
      0.01579 [    16]: 20221
      0.01280 [    11]: 12202
      0.01095 [    28]: 22201
      0.01078 [    27]: 22120
      0.00952 [     0]: 01222
      0.00925 [    29]: 22210
      0.00820 [    21]: 21211
      0.00687 [    23]: 22012
ROOT  10:  E=   -1470.9673955476 Eh  0.509 eV   4107.1 cm**-1
      0.27078 [     2]: 02212
      0.16678 [    10]: 12121
      0.10918 [     5]: 11122
      0.06498 [    18]: 21112
      0.06380 [    21]: 21211
      0.04347 [     3]: 02221
      0.03702 [    19]: 21121
      0.03624 [    26]: 22111
      0.03480 [     0]: 01222
      0.02452 [    23]: 22012
      0.02404 [    12]: 12211
      0.01803 [    20]: 21202
      0.01685 [    28]: 22201
      0.01650 [    24]: 22021
      0.00998 [    16]: 20221
      0.00830 [    29]: 22210
      0.00801 [     1]: 02122
      0.00658 [     6]: 11212
      0.00651 [     9]: 12112
      0.00615 [    27]: 22120
      0.00597 [    15]: 20212
      0.00575 [    17]: 21022
      0.00405 [    11]: 12202
      0.00340 [     7]: 11221
      0.00288 [    25]: 22102
ROOT  11:  E=   -1470.9622562235 Eh  0.649 eV   5235.1 cm**-1
      0.34535 [     4]: 10222
      0.10387 [    19]: 21121
      0.09087 [     5]: 11122
      0.07042 [    23]: 22012
      0.06602 [    11]: 12202
      0.04655 [    21]: 21211
      0.04130 [     6]: 11212
      0.03959 [    18]: 21112
      0.03833 [    14]: 20122
      0.03292 [    26]: 22111
      0.02586 [     9]: 12112
      0.01954 [    27]: 22120
      0.01890 [    10]: 12121
      0.01516 [    29]: 22210
      0.01496 [     7]: 11221
      0.01089 [    13]: 12220
      0.00593 [    12]: 12211
      0.00474 [    15]: 20212
      0.00386 [    24]: 22021
ROOT  12:  E=   -1470.9594681283 Eh  0.725 eV   5847.0 cm**-1
      0.15462 [    12]: 12211
      0.13756 [     9]: 12112
      0.13013 [     6]: 11212
      0.12606 [     7]: 11221
      0.12195 [    10]: 12121
      0.10419 [    11]: 12202
      0.07680 [     5]: 11122
      0.02716 [    22]: 21220
      0.01800 [    26]: 22111
      0.01611 [    25]: 22102
      0.01537 [    21]: 21211
      0.01455 [     8]: 12022
      0.01427 [     1]: 02122
      0.00972 [    17]: 21022
      0.00593 [    14]: 20122
      0.00384 [    28]: 22201
      0.00372 [    13]: 12220
      0.00358 [     2]: 02212
      0.00310 [     0]: 01222
      0.00292 [    27]: 22120
ROOT  13:  E=   -1470.9593451930 Eh  0.728 eV   5874.0 cm**-1
      0.18917 [     6]: 11212
      0.10999 [    12]: 12211
      0.08783 [    16]: 20221
      0.08631 [    26]: 22111
      0.08378 [     5]: 11122
      0.07070 [     9]: 12112
      0.05481 [    14]: 20122
      0.04019 [    18]: 21112
      0.03843 [     3]: 02221
      0.03687 [     7]: 11221
      0.03318 [    25]: 22102
      0.02870 [     0]: 01222
      0.02582 [    24]: 22021
      0.02512 [    17]: 21022
      0.02429 [     1]: 02122
      0.02162 [    10]: 12121
      0.01136 [    11]: 12202
      0.01072 [    19]: 21121
      0.00882 [     8]: 12022
      0.00400 [    21]: 21211
      0.00360 [    13]: 12220
ROOT  14:  E=   -1470.9587312340 Eh  0.745 eV   6008.7 cm**-1
      0.18489 [    21]: 21211
      0.14829 [    18]: 21112
      0.10109 [     5]: 11122
      0.09136 [    26]: 22111
      0.09084 [     7]: 11221
      0.08243 [    19]: 21121
      0.05325 [     0]: 01222
      0.04924 [    23]: 22012
      0.04559 [     8]: 12022
      0.03920 [     4]: 10222
      0.02365 [    25]: 22102
      0.02016 [    20]: 21202
      0.01525 [    10]: 12121
      0.00986 [    28]: 22201
      0.00856 [    14]: 20122
      0.00819 [     2]: 02212
      0.00479 [     1]: 02122
      0.00404 [     9]: 12112
      0.00367 [     3]: 02221
      0.00346 [     6]: 11212
      0.00257 [    12]: 12211
ROOT  15:  E=   -1470.9565647829 Eh  0.804 eV   6484.2 cm**-1
      0.10073 [    28]: 22201
      0.09925 [    25]: 22102
      0.09913 [     9]: 12112
      0.06901 [    24]: 22021
      0.06870 [    16]: 20221
      0.06687 [    19]: 21121
      0.06399 [     0]: 01222
      0.06164 [    15]: 20212
      0.05245 [    26]: 22111
      0.05229 [    14]: 20122
      0.04013 [    12]: 12211
      0.03734 [    29]: 22210
      0.02997 [    18]: 21112
      0.02758 [     6]: 11212
      0.01993 [    20]: 21202
      0.01933 [     3]: 02221
      0.01469 [     2]: 02212
      0.01457 [    13]: 12220
      0.01353 [     8]: 12022
      0.01309 [    23]: 22012
      0.01296 [    27]: 22120
      0.00926 [     7]: 11221
      0.00605 [    22]: 21220
      0.00463 [     5]: 11122
ROOT  16:  E=   -1470.9516091621 Eh  0.939 eV   7571.8 cm**-1
      0.18889 [    11]: 12202
      0.12072 [    14]: 20122
      0.09630 [    19]: 21121
      0.08765 [    10]: 12121
      0.07137 [    24]: 22021
      0.06024 [    13]: 12220
      0.03985 [     7]: 11221
      0.03670 [    18]: 21112
      0.03590 [    12]: 12211
      0.03179 [     3]: 02221
      0.03160 [    17]: 21022
      0.02879 [     5]: 11122
      0.02629 [    15]: 20212
      0.02573 [    21]: 21211
      0.02118 [     1]: 02122
      0.02050 [    26]: 22111
      0.01433 [     9]: 12112
      0.01196 [    27]: 22120
      0.01052 [    23]: 22012
      0.01037 [     0]: 01222
      0.00889 [    28]: 22201
      0.00880 [     4]: 10222
      0.00288 [    16]: 20221
ROOT  17:  E=   -1470.9494449454 Eh  0.998 eV   8046.8 cm**-1
      0.12761 [    26]: 22111
      0.11026 [    18]: 21112
      0.10422 [    16]: 20221
      0.07995 [     0]: 01222
      0.07720 [    28]: 22201
      0.06646 [    25]: 22102
      0.05136 [    19]: 21121
      0.04031 [    10]: 12121
      0.03763 [     9]: 12112
      0.03401 [    17]: 21022
      0.03331 [    21]: 21211
      0.03283 [    15]: 20212
      0.03139 [     1]: 02122
      0.02993 [     8]: 12022
      0.02750 [    12]: 12211
      0.02715 [     2]: 02212
      0.02128 [     7]: 11221
      0.02038 [    13]: 12220
      0.01408 [    14]: 20122
      0.01230 [     6]: 11212
      0.00742 [     5]: 11122
      0.00499 [    29]: 22210
      0.00308 [    11]: 12202
ROOT  18:  E=   -1470.9493610616 Eh  1.000 eV   8065.2 cm**-1
      0.16670 [    20]: 21202
      0.09588 [    22]: 21220
      0.08808 [    13]: 12220
      0.08468 [     5]: 11122
      0.07868 [    25]: 22102
      0.06950 [    21]: 21211
      0.04938 [    17]: 21022
      0.04805 [    26]: 22111
      0.04658 [    19]: 21121
      0.04123 [     9]: 12112
      0.03290 [    27]: 22120
      0.03038 [     8]: 12022
      0.02810 [    12]: 12211
      0.02608 [     6]: 11212
      0.02535 [    10]: 12121
      0.02178 [    18]: 21112
      0.01046 [     2]: 02212
      0.00976 [     4]: 10222
      0.00957 [    14]: 20122
      0.00945 [     0]: 01222
      0.00703 [    29]: 22210
      0.00615 [    24]: 22021
      0.00512 [     1]: 02122
      0.00339 [     7]: 11221
ROOT  19:  E=   -1470.9492433676 Eh  1.003 eV   8091.1 cm**-1
      0.21835 [    18]: 21112
      0.15252 [     7]: 11221
      0.10539 [    12]: 12211
      0.09099 [    21]: 21211
      0.06924 [    23]: 22012
      0.06246 [    17]: 21022
      0.05094 [    29]: 22210
      0.04409 [     9]: 12112
      0.03866 [    10]: 12121
      0.03396 [     8]: 12022
      0.03007 [    26]: 22111
      0.02018 [    27]: 22120
      0.01656 [    19]: 21121
      0.01257 [    20]: 21202
      0.00880 [    24]: 22021
      0.00845 [     5]: 11122
      0.00755 [    22]: 21220
      0.00679 [    25]: 22102
      0.00438 [     0]: 01222
      0.00429 [     3]: 02221
      0.00378 [    28]: 22201
      0.00352 [    14]: 20122
      0.00316 [     6]: 11212
ROOT  20:  E=   -1470.9460974336 Eh  1.089 eV   8781.5 cm**-1
      0.21422 [     6]: 11212
      0.19267 [    26]: 22111
      0.06520 [    12]: 12211
      0.06063 [     7]: 11221
      0.05757 [    16]: 20221
      0.05578 [    29]: 22210
      0.05411 [     5]: 11122
      0.04694 [    14]: 20122
      0.04336 [    23]: 22012
      0.04027 [    18]: 21112
      0.02938 [    19]: 21121
      0.02930 [    25]: 22102
      0.01920 [    28]: 22201
      0.01814 [     9]: 12112
      0.01566 [     3]: 02221
      0.01452 [     4]: 10222
      0.01229 [    17]: 21022
      0.01036 [     1]: 02122
      0.00794 [    10]: 12121
      0.00320 [     0]: 01222
      0.00291 [    15]: 20212
ROOT  21:  E=   -1470.9411937314 Eh  1.222 eV   9857.8 cm**-1
      0.11669 [    27]: 22120
      0.11527 [    19]: 21121
      0.11462 [    18]: 21112
      0.10945 [    22]: 21220
      0.10480 [    17]: 21022
      0.07367 [    14]: 20122
      0.04552 [    11]: 12202
      0.04485 [     6]: 11212
      0.04171 [    21]: 21211
      0.03217 [    25]: 22102
      0.02391 [    15]: 20212
      0.02268 [    12]: 12211
      0.02179 [    23]: 22012
      0.01900 [    10]: 12121
      0.01834 [     9]: 12112
      0.01655 [     1]: 02122
      0.01467 [    20]: 21202
      0.01278 [     7]: 11221
      0.01076 [    26]: 22111
      0.00914 [    16]: 20221
      0.00758 [    13]: 12220
      0.00634 [    29]: 22210
      0.00361 [     2]: 02212
      0.00358 [    28]: 22201
      0.00307 [     3]: 02221
      0.00276 [     4]: 10222
      0.00251 [     0]: 01222
ROOT  22:  E=   -1470.9411346923 Eh  1.224 eV   9870.7 cm**-1
      0.24643 [    19]: 21121
      0.14620 [    21]: 21211
      0.07626 [    17]: 21022
      0.06969 [    28]: 22201
      0.05423 [    16]: 20221
      0.05384 [     5]: 11122
      0.04539 [    24]: 22021
      0.04184 [    10]: 12121
      0.03930 [    20]: 21202
      0.03387 [     9]: 12112
      0.02672 [    23]: 22012
      0.02407 [    18]: 21112
      0.02356 [    22]: 21220
      0.02186 [    26]: 22111
      0.01901 [    12]: 12211
      0.01419 [     3]: 02221
      0.01387 [    29]: 22210
      0.00992 [    15]: 20212
      0.00719 [     2]: 02212
      0.00601 [    27]: 22120
      0.00563 [    14]: 20122
      0.00537 [     4]: 10222
      0.00516 [    11]: 12202
      0.00418 [     6]: 11212
      0.00347 [     7]: 11221
ROOT  23:  E=   -1470.9387818882 Eh  1.288 eV  10387.1 cm**-1
      0.16645 [    10]: 12121
      0.16295 [     5]: 11122
      0.10921 [    26]: 22111
      0.06655 [    24]: 22021
      0.05869 [    18]: 21112
      0.04085 [     6]: 11212
      0.03902 [    12]: 12211
      0.03627 [     4]: 10222
      0.03310 [    11]: 12202
      0.03166 [    15]: 20212
      0.02808 [    13]: 12220
      0.02601 [    21]: 21211
      0.02525 [     8]: 12022
      0.02418 [    29]: 22210
      0.02335 [     7]: 11221
      0.02185 [    22]: 21220
      0.02146 [     9]: 12112
      0.01709 [    28]: 22201
      0.01505 [     1]: 02122
      0.01281 [    25]: 22102
      0.00813 [     3]: 02221
      0.00568 [    20]: 21202
      0.00509 [     0]: 01222
      0.00406 [    17]: 21022
      0.00375 [     2]: 02212
      0.00363 [    14]: 20122
      0.00320 [    23]: 22012
      0.00292 [    27]: 22120
ROOT  24:  E=   -1470.9377749002 Eh  1.315 eV  10608.1 cm**-1
      0.15465 [     9]: 12112
      0.09588 [    24]: 22021
      0.09436 [    19]: 21121
      0.09175 [    26]: 22111
      0.07042 [    21]: 21211
      0.06909 [    13]: 12220
      0.06010 [    10]: 12121
      0.05184 [    23]: 22012
      0.05033 [     6]: 11212
      0.04612 [    27]: 22120
      0.03993 [    12]: 12211
      0.02499 [    29]: 22210
      0.02293 [     2]: 02212
      0.01973 [    18]: 21112
      0.01883 [    28]: 22201
      0.01603 [     3]: 02221
      0.01221 [     7]: 11221
      0.01020 [     8]: 12022
      0.00994 [     5]: 11122
      0.00855 [    17]: 21022
      0.00809 [    25]: 22102
      0.00513 [    20]: 21202
      0.00467 [     4]: 10222
      0.00445 [    11]: 12202
      0.00381 [    15]: 20212
      0.00296 [    22]: 21220
ROOT  25:  E=   -1470.9373845906 Eh  1.326 eV  10693.8 cm**-1
      0.11064 [    27]: 22120
      0.10335 [     7]: 11221
      0.10051 [    12]: 12211
      0.08874 [    23]: 22012
      0.08029 [    11]: 12202
      0.07851 [    26]: 22111
      0.07115 [    29]: 22210
      0.05273 [    21]: 21211
      0.05007 [     6]: 11212
      0.04583 [    25]: 22102
      0.03835 [    22]: 21220
      0.03368 [    18]: 21112
      0.03252 [     8]: 12022
      0.03007 [    13]: 12220
      0.01875 [    19]: 21121
      0.01631 [    10]: 12121
      0.01237 [     9]: 12112
      0.00917 [    20]: 21202
      0.00633 [    24]: 22021
      0.00583 [    16]: 20221
      0.00454 [     1]: 02122
      0.00273 [    28]: 22201
ROOT  26:  E=   -1470.9359835352 Eh  1.364 eV  11001.3 cm**-1
      0.18075 [    29]: 22210
      0.12878 [    28]: 22201
      0.09467 [     5]: 11122
      0.06707 [     7]: 11221
      0.06680 [    18]: 21112
      0.06668 [    26]: 22111
      0.04874 [    27]: 22120
      0.03787 [    10]: 12121
      0.03226 [    15]: 20212
      0.03126 [    19]: 21121
      0.03097 [    23]: 22012
      0.03052 [     9]: 12112
      0.02893 [    25]: 22102
      0.02690 [    12]: 12211
      0.02369 [    20]: 21202
      0.01990 [     4]: 10222
      0.01576 [    21]: 21211
      0.01194 [    14]: 20122
      0.01171 [     2]: 02212
      0.00947 [    17]: 21022
      0.00842 [     6]: 11212
      0.00686 [    16]: 20221
      0.00610 [    24]: 22021
      0.00408 [     3]: 02221
      0.00389 [     8]: 12022
      0.00265 [    11]: 12202
ROOT  27:  E=   -1470.9344765526 Eh  1.405 eV  11332.0 cm**-1
      0.13906 [    21]: 21211
      0.09970 [    12]: 12211
      0.08516 [    17]: 21022
      0.08070 [    22]: 21220
      0.07461 [    18]: 21112
      0.06257 [     9]: 12112
      0.05278 [     1]: 02122
      0.05115 [    27]: 22120
      0.04743 [    14]: 20122
      0.04003 [     3]: 02221
      0.03443 [    25]: 22102
      0.03149 [     8]: 12022
      0.02312 [    13]: 12220
      0.02234 [    15]: 20212
      0.02215 [     5]: 11122
      0.02101 [     7]: 11221
      0.01898 [     6]: 11212
      0.01772 [    26]: 22111
      0.01610 [    24]: 22021
      0.01562 [    28]: 22201
      0.01406 [    29]: 22210
      0.01063 [     2]: 02212
      0.00722 [    19]: 21121
      0.00606 [    16]: 20221
ROOT  28:  E=   -1470.8780806840 Eh  2.940 eV  23709.5 cm**-1
      0.17987 [    10]: 12121
      0.10555 [     9]: 12112
      0.09361 [    15]: 20212
      0.08742 [    18]: 21112
      0.07904 [     3]: 02221
      0.06467 [    12]: 12211
      0.05038 [     7]: 11221
      0.04580 [    20]: 21202
      0.04286 [    16]: 20221
      0.02982 [    22]: 21220
      0.02907 [    17]: 21022
      0.02861 [     1]: 02122
      0.02467 [    14]: 20122
      0.02252 [     6]: 11212
      0.02122 [    24]: 22021
      0.01386 [    26]: 22111
      0.01297 [     0]: 01222
      0.01264 [     8]: 12022
      0.01254 [    29]: 22210
      0.01097 [    19]: 21121
      0.00966 [     5]: 11122
      0.00921 [    13]: 12220
      0.00580 [    21]: 21211
      0.00554 [    27]: 22120
ROOT  29:  E=   -1470.8765035231 Eh  2.983 eV  24055.6 cm**-1
      0.12039 [     6]: 11212
      0.09826 [    21]: 21211
      0.09792 [    26]: 22111
      0.07965 [     7]: 11221
      0.07735 [     1]: 02122
      0.07173 [     5]: 11122
      0.06113 [    10]: 12121
      0.05388 [    23]: 22012
      0.04889 [    16]: 20221
      0.04617 [     3]: 02221
      0.03916 [    24]: 22021
      0.03456 [    14]: 20122
      0.02888 [    27]: 22120
      0.01878 [    15]: 20212
      0.01595 [     9]: 12112
      0.01455 [    18]: 21112
      0.01317 [    25]: 22102
      0.01202 [    28]: 22201
      0.01123 [    29]: 22210
      0.01074 [    17]: 21022
      0.01062 [    12]: 12211
      0.00964 [     4]: 10222
      0.00730 [    19]: 21121
      0.00706 [    22]: 21220
      0.00342 [    13]: 12220
      0.00329 [    11]: 12202
      0.00279 [     0]: 01222
ROOT  30:  E=   -1470.8737735301 Eh  3.057 eV  24654.8 cm**-1
      0.13959 [    19]: 21121
      0.09796 [    20]: 21202
      0.08290 [     1]: 02122
      0.08111 [     3]: 02221
      0.07067 [    21]: 21211
      0.06457 [    10]: 12121
      0.05904 [     2]: 02212
      0.05639 [    18]: 21112
      0.04943 [    26]: 22111
      0.04469 [    28]: 22201
      0.03740 [     0]: 01222
      0.03561 [    12]: 12211
      0.03374 [     6]: 11212
      0.03091 [     9]: 12112
      0.02821 [    27]: 22120
      0.01402 [    24]: 22021
      0.01218 [    23]: 22012
      0.01095 [    13]: 12220
      0.00978 [    14]: 20122
      0.00694 [    22]: 21220
      0.00645 [     7]: 11221
      0.00623 [     5]: 11122
      0.00586 [    29]: 22210
      0.00542 [    15]: 20212
      0.00351 [    16]: 20221
      0.00273 [    17]: 21022
      0.00262 [     8]: 12022
ROOT  31:  E=   -1470.8714973870 Eh  3.119 eV  25154.3 cm**-1
      0.13702 [    21]: 21211
      0.10790 [     5]: 11122
      0.09659 [    18]: 21112
      0.08557 [    12]: 12211
      0.05741 [    25]: 22102
      0.05232 [     7]: 11221
      0.04873 [    23]: 22012
      0.04724 [     9]: 12112
      0.04445 [    22]: 21220
      0.04144 [     4]: 10222
      0.03995 [    24]: 22021
      0.03981 [    27]: 22120
      0.03365 [    28]: 22201
      0.03363 [    29]: 22210
      0.02155 [    19]: 21121
      0.02097 [    26]: 22111
      0.01997 [     8]: 12022
      0.01244 [    17]: 21022
      0.01204 [     6]: 11212
      0.01174 [    16]: 20221
      0.00789 [    15]: 20212
      0.00775 [    20]: 21202
      0.00703 [    14]: 20122
      0.00536 [    10]: 12121
      0.00358 [    11]: 12202
ROOT  32:  E=   -1470.8710200786 Eh  3.132 eV  25259.1 cm**-1
      0.09826 [    21]: 21211
      0.08644 [     9]: 12112
      0.08153 [    19]: 21121
      0.07792 [    18]: 21112
      0.06824 [    16]: 20221
      0.06412 [    26]: 22111
      0.05764 [     7]: 11221
      0.05188 [     8]: 12022
      0.04418 [    28]: 22201
      0.04231 [    25]: 22102
      0.04107 [    29]: 22210
      0.04056 [    10]: 12121
      0.03536 [     6]: 11212
      0.03474 [    12]: 12211
      0.03345 [     1]: 02122
      0.03017 [    20]: 21202
      0.02602 [    24]: 22021
      0.01659 [    15]: 20212
      0.01370 [    11]: 12202
      0.01307 [    14]: 20122
      0.01132 [     5]: 11122
      0.01093 [     4]: 10222
      0.00820 [    13]: 12220
      0.00295 [    23]: 22012
      0.00270 [    27]: 22120
ROOT  33:  E=   -1470.8669045885 Eh  3.244 eV  26162.3 cm**-1
      0.22216 [    10]: 12121
      0.14110 [    18]: 21112
      0.08333 [    15]: 20212
      0.07058 [    29]: 22210
      0.05745 [    12]: 12211
      0.05210 [     7]: 11221
      0.04542 [    26]: 22111
      0.03659 [    17]: 21022
      0.02908 [    21]: 21211
      0.02638 [    19]: 21121
      0.02494 [    16]: 20221
      0.02240 [     9]: 12112
      0.02190 [    28]: 22201
      0.02123 [    20]: 21202
      0.02053 [    25]: 22102
      0.01892 [     5]: 11122
      0.01814 [    13]: 12220
      0.01694 [    27]: 22120
      0.01334 [    11]: 12202
      0.01322 [     8]: 12022
      0.01165 [     4]: 10222
      0.00873 [     1]: 02122
      0.00720 [    14]: 20122
      0.00551 [    24]: 22021
      0.00324 [    22]: 21220
      0.00323 [     3]: 02221
      0.00317 [     6]: 11212
ROOT  34:  E=   -1470.8668917476 Eh  3.244 eV  26165.2 cm**-1
      0.20795 [    21]: 21211
      0.12252 [     8]: 12022
      0.09905 [    13]: 12220
      0.07350 [    20]: 21202
      0.06156 [    22]: 21220
      0.05936 [     9]: 12112
      0.04752 [    23]: 22012
      0.04126 [    26]: 22111
      0.03662 [    19]: 21121
      0.03419 [     5]: 11122
      0.02809 [    10]: 12121
      0.02735 [    15]: 20212
      0.02134 [    18]: 21112
      0.02037 [    12]: 12211
      0.01965 [    14]: 20122
      0.01601 [     1]: 02122
      0.01350 [     3]: 02221
      0.01199 [     7]: 11221
      0.01009 [    28]: 22201
      0.00800 [    24]: 22021
      0.00756 [    17]: 21022
      0.00686 [    25]: 22102
      0.00677 [    16]: 20221
      0.00464 [     6]: 11212
      0.00352 [     0]: 01222
      0.00336 [     4]: 10222
      0.00257 [     2]: 02212
ROOT  35:  E=   -1470.7767588865 Eh  5.697 eV  45947.0 cm**-1
      0.20797 [    20]: 21202
      0.12231 [     1]: 02122
      0.08362 [     0]: 01222
      0.08053 [    22]: 21220
      0.07788 [    17]: 21022
      0.05388 [    27]: 22120
      0.04627 [     3]: 02221
      0.04140 [    25]: 22102
      0.03603 [    23]: 22012
      0.03401 [     2]: 02212
      0.03155 [    14]: 20122
      0.03068 [    21]: 21211
      0.02030 [    12]: 12211
      0.01798 [    29]: 22210
      0.01700 [     9]: 12112
      0.01679 [    18]: 21112
      0.01366 [    19]: 21121
      0.01266 [    16]: 20221
      0.01122 [    15]: 20212
      0.01096 [    24]: 22021
      0.00952 [    26]: 22111
      0.00796 [    10]: 12121
      0.00353 [    13]: 12220
      0.00342 [     8]: 12022
      0.00251 [     7]: 11221
ROOT  36:  E=   -1470.7735349545 Eh  5.784 eV  46654.6 cm**-1
      0.23540 [     8]: 12022
      0.22513 [    13]: 12220
      0.14181 [    11]: 12202
      0.09582 [     4]: 10222
      0.05630 [    28]: 22201
      0.04895 [    25]: 22102
      0.02235 [    21]: 21211
      0.01992 [    17]: 21022
      0.01785 [    15]: 20212
      0.01528 [    10]: 12121
      0.01377 [    20]: 21202
      0.01360 [    26]: 22111
      0.01355 [    18]: 21112
      0.01329 [     3]: 02221
      0.01173 [    16]: 20221
      0.01166 [     6]: 11212
      0.01054 [    22]: 21220
      0.00900 [     7]: 11221
      0.00842 [     9]: 12112
      0.00495 [     1]: 02122
      0.00281 [    12]: 12211
ROOT  37:  E=   -1470.7712386167 Eh  5.847 eV  47158.6 cm**-1
      0.26478 [    15]: 20212
      0.11567 [    29]: 22210
      0.11012 [    23]: 22012
      0.06883 [    16]: 20221
      0.06381 [    14]: 20122
      0.05371 [     3]: 02221
      0.04927 [     2]: 02212
      0.03910 [     1]: 02122
      0.03405 [     7]: 11221
      0.03029 [     8]: 12022
      0.02904 [    10]: 12121
      0.02125 [    24]: 22021
      0.01773 [    28]: 22201
      0.01754 [    25]: 22102
      0.01696 [    26]: 22111
      0.01653 [    27]: 22120
      0.01434 [     5]: 11122
      0.00655 [     9]: 12112
      0.00635 [    20]: 21202
      0.00620 [    19]: 21121
      0.00367 [    12]: 12211
      0.00358 [    17]: 21022
      0.00327 [    21]: 21211
ROOT  38:  E=   -1470.7491908688 Eh  6.447 eV  51997.5 cm**-1
      0.14608 [    27]: 22120
      0.12791 [    25]: 22102
      0.08391 [    28]: 22201
      0.07996 [    22]: 21220
      0.06601 [    13]: 12220
      0.05937 [    14]: 20122
      0.05476 [    16]: 20221
      0.05463 [     1]: 02122
      0.04393 [    24]: 22021
      0.03941 [    20]: 21202
      0.03876 [    26]: 22111
      0.02915 [    19]: 21121
      0.02231 [     8]: 12022
      0.02171 [     3]: 02221
      0.01845 [    21]: 21211
      0.01810 [    10]: 12121
      0.01645 [    29]: 22210
      0.01565 [     6]: 11212
      0.01565 [    18]: 21112
      0.01295 [     4]: 10222
      0.01215 [     7]: 11221
      0.00759 [     0]: 01222
      0.00689 [     5]: 11122
      0.00302 [    12]: 12211
ROOT  39:  E=   -1470.7486181684 Eh  6.462 eV  52123.2 cm**-1
      0.14109 [    24]: 22021
      0.09533 [    22]: 21220
      0.07875 [    17]: 21022
      0.07849 [    23]: 22012
      0.07259 [    20]: 21202
      0.07032 [     3]: 02221
      0.06434 [    29]: 22210
      0.05532 [    16]: 20221
      0.04922 [    28]: 22201
      0.03378 [    26]: 22111
      0.03164 [    18]: 21112
      0.03066 [    19]: 21121
      0.02953 [    15]: 20212
      0.02424 [    27]: 22120
      0.01950 [    10]: 12121
      0.01930 [     0]: 01222
      0.01692 [     7]: 11221
      0.01483 [     2]: 02212
      0.01415 [    13]: 12220
      0.01119 [     1]: 02122
      0.01097 [     8]: 12022
      0.01080 [    21]: 21211
      0.00895 [     5]: 11122
      0.00830 [     9]: 12112
      0.00657 [    12]: 12211

                 <<<<<<<<<<<<<<<<<<INITIAL CI STATE CHECK>>>>>>>>>>>>>>>>>>

   E(CAS)= -1470.977629576 Eh DE=    0.000000e+00
   --- Energy gap subspaces: Ext-Act = 1.572   Act-Int = 0.160
   --- current l-shift: Up(Ext-Act) = 1.00   Dn(Act-Int) = 1.84
   N(occ)=  1.40000 1.40000 1.40000 1.40000 1.40000
   ||g|| =     1.114501e-04 Max(G)=   -3.186756e-05 Rot=216,1
   --- Orbital Update [   SuperCI]
   SUPERCI-ITER   0: DE=    -0.000000000 <r|r>=      0.000000000
   <Psi(SX)|Psi(SX)>=      1.000000000 DE(SX)=-0.000000000
   Largest coefficient in the normalized |SX> wavefunction= 0.000009676
   --- Forming Natural Orbitals

MACRO-ITERATION   2: 
   ===>>> Convergence to 3.0e-02 achieved - switching to Step=DIIS
   --- Inactive Energy E0 = -1448.73559643 Eh
CI-ITERATION   0: 
 -1471.065519714   0.000000000000 (    0.00)
 -1471.064521767   0.000000000000
 -1471.063208912   0.000000000000
 -1471.062498487   0.000000000000
 -1471.054665049   0.000000000000
 -1471.054450744   0.000000000000
 -1471.052474946   0.000000000000
 -1470.988724317   0.000000000000
 -1470.977578163   0.000000000000
 -1470.968698074   0.000000000000
   CI-PROBLEM SOLVED
   DENSITIES MADE
CI-ITERATION   0: 
 -1470.986108966   0.000000000000 (    0.01)
 -1470.985750107   0.000000000000
 -1470.984143077   0.000000000000
 -1470.983130606   0.000000000000
 -1470.982383016   0.000000000000
 -1470.980146695   0.000000000000
 -1470.979000871   0.000000000000
 -1470.976445305   0.000000000000
 -1470.976113329   0.000000000000
 -1470.967522491   0.000000000000
 -1470.967395593   0.000000000000
 -1470.962256361   0.000000000000
 -1470.959468114   0.000000000000
 -1470.959345247   0.000000000000
 -1470.958731366   0.000000000000
 -1470.956564799   0.000000000000
 -1470.951609254   0.000000000000
 -1470.949445001   0.000000000000
 -1470.949361056   0.000000000000
 -1470.949243360   0.000000000000
 -1470.946097397   0.000000000000
 -1470.941193713   0.000000000000
 -1470.941134673   0.000000000000
 -1470.938781914   0.000000000000
 -1470.937774858   0.000000000000
 -1470.937384552   0.000000000000
 -1470.935983530   0.000000000000
 -1470.934476521   0.000000000000
 -1470.878080793   0.000000000000
 -1470.876503641   0.000000000000
 -1470.873773593   0.000000000000
 -1470.871497466   0.000000000000
 -1470.871020155   0.000000000000
 -1470.866904650   0.000000000000
 -1470.866891808   0.000000000000
 -1470.776759020   0.000000000000
 -1470.773535161   0.000000000000
 -1470.771238836   0.000000000000
 -1470.749190927   0.000000000000
 -1470.748618210   0.000000000000
   CI-PROBLEM SOLVED
   DENSITIES MADE
   E(CAS)= -1470.977629584 Eh DE=   -7.562676e-09
   --- Energy gap subspaces: Ext-Act = 1.573   Act-Int = 0.157
   --- current l-shift: Up(Ext-Act) = 0.50   Dn(Act-Int) = 1.34
   N(occ)=  1.40000 1.40000 1.40000 1.40000 1.40000
   ||g|| =     6.370714e-05 Max(G)=   -1.789753e-05 Rot=38,12
                     ---- THE CAS-SCF ENERGY   HAS CONVERGED ----
                            --- FINALIZING ORBITALS ---
                    ---- DOING ONE FINAL ITERATION FOR PRINTING ----
   --- d-orbitals (depends on the molecular axis frame)
 L-Center:  0 Co [0.006, -1.218, 0.505] 
   --- The active space contains 5 d Orbitals : OK
 Setting 19 active MO to AO dz2     (25)
 Setting 20 active MO to AO dxz     (26)
 Setting 21 active MO to AO dyz     (27)
 Setting 22 active MO to AO dx2y2   (28)
 Setting 23 active MO to AO dxy     (29)
   --- Canonicalize Internal Space
   --- Canonicalize External Space

MACRO-ITERATION   3: 
   --- Inactive Energy E0 = -1448.73559643 Eh
   --- All densities will be recomputed
CI-ITERATION   0: 
 -1471.065519711   0.000000000000 (    0.00)
 -1471.064521764   0.000000000000
 -1471.063208910   0.000000000000
 -1471.062498484   0.000000000000
 -1471.054665046   0.000000000000
 -1471.054450742   0.000000000000
 -1471.052474945   0.000000000000
 -1470.988724316   0.000000000000
 -1470.977578161   0.000000000000
 -1470.968698071   0.000000000000
   CI-PROBLEM SOLVED
   DENSITIES MADE
CI-ITERATION   0: 
 -1470.986108964   0.000000000000 (    0.01)
 -1470.985750104   0.000000000000
 -1470.984143075   0.000000000000
 -1470.983130604   0.000000000000
 -1470.982383014   0.000000000000
 -1470.980146692   0.000000000000
 -1470.979000869   0.000000000000
 -1470.976445303   0.000000000000
 -1470.976113327   0.000000000000
 -1470.967522490   0.000000000000
 -1470.967395591   0.000000000000
 -1470.962256359   0.000000000000
 -1470.959468112   0.000000000000
 -1470.959345245   0.000000000000
 -1470.958731365   0.000000000000
 -1470.956564798   0.000000000000
 -1470.951609252   0.000000000000
 -1470.949444999   0.000000000000
 -1470.949361054   0.000000000000
 -1470.949243358   0.000000000000
 -1470.946097395   0.000000000000
 -1470.941193710   0.000000000000
 -1470.941134671   0.000000000000
 -1470.938781911   0.000000000000
 -1470.937774855   0.000000000000
 -1470.937384549   0.000000000000
 -1470.935983527   0.000000000000
 -1470.934476518   0.000000000000
 -1470.878080791   0.000000000000
 -1470.876503639   0.000000000000
 -1470.873773591   0.000000000000
 -1470.871497464   0.000000000000
 -1470.871020152   0.000000000000
 -1470.866904646   0.000000000000
 -1470.866891805   0.000000000000
 -1470.776759019   0.000000000000
 -1470.773535159   0.000000000000
 -1470.771238833   0.000000000000
 -1470.749190923   0.000000000000
 -1470.748618206   0.000000000000
   CI-PROBLEM SOLVED
   DENSITIES MADE
   E(CAS)= -1470.977629582 Eh DE=    2.259412e-09
   --- Energy gap subspaces: Ext-Act = 0.386   Act-Int = 0.001
   --- current l-shift: Up(Ext-Act) = 0.95   Dn(Act-Int) = 1.33
   N(occ)=  1.40000 1.40000 1.40000 1.40000 1.40000
   ||g|| =     6.370712e-05 Max(G)=   -4.435281e-05 Rot=24,18
--------------
CASSCF RESULTS
--------------

Final CASSCF energy       : -1470.977629582 Eh  -40027.3363 eV

----------------
ORBITAL ENERGIES
----------------

  NO   OCC          E(Eh)            E(eV) 
   0   2.0000    -285.764468     -7776.0465 
   1   2.0000     -35.468249      -965.1401 
   2   2.0000     -30.241061      -822.9011 
   3   2.0000     -30.240383      -822.8827 
   4   2.0000     -30.238121      -822.8211 
   5   2.0000     -11.175773      -304.1083 
   6   2.0000     -11.175743      -304.1074 
   7   2.0000      -4.617347      -125.6444 
   8   2.0000      -3.025893       -82.3387 
   9   2.0000      -3.025280       -82.3221 
  10   2.0000      -3.021828       -82.2281 
  11   2.0000      -0.891729       -24.2652 
  12   2.0000      -0.883893       -24.0520 
  13   2.0000      -0.520650       -14.1676 
  14   2.0000      -0.519761       -14.1434 
  15   2.0000      -0.519431       -14.1344 
  16   2.0000      -0.516840       -14.0639 
  17   2.0000      -0.434863       -11.8332 
  18   2.0000      -0.363747        -9.8981 
  19   1.4000      -0.354301        -9.6410 
  20   1.4000      -0.348190        -9.4747 
  21   1.4000      -0.363085        -9.8801 
  22   1.4000      -0.336914        -9.1679 
  23   1.4000      -0.332510        -9.0481 
  24   0.0000       0.053699         1.4612 
  25   0.0000       0.126458         3.4411 
  26   0.0000       0.137702         3.7471 
  27   0.0000       0.171017         4.6536 
  28   0.0000       0.224828         6.1179 
  29   0.0000       0.225895         6.1469 
  30   0.0000       0.244993         6.6666 
  31   0.0000       0.246188         6.6991 
  32   0.0000       0.256742         6.9863 
  33   0.0000       0.291871         7.9422 
  34   0.0000       0.307954         8.3799 
  35   0.0000       0.309881         8.4323 
  36   0.0000       0.318913         8.6781 
  37   0.0000       0.339231         9.2309 
  38   0.0000       0.353713         9.6250 
  39   0.0000       0.360570         9.8116 
  40   0.0000       0.375223        10.2103 
  41   0.0000       0.408666        11.1204 
  42   0.0000       0.428020        11.6470 
  43   0.0000       0.443098        12.0573 
  44   0.0000       0.539686        14.6856 
  45   0.0000       0.553404        15.0589 
  46   0.0000       0.553971        15.0743 
  47   0.0000       0.625452        17.0194 
  48   0.0000       0.626560        17.0496 
  49   0.0000       0.659095        17.9349 
  50   0.0000       0.665908        18.1203 
  51   0.0000       0.668099        18.1799 
  52   0.0000       0.689805        18.7705 
  53   0.0000       0.729602        19.8535 
  54   0.0000       0.767228        20.8773 
  55   0.0000       0.767443        20.8832 
  56   0.0000       0.836906        22.7734 
  57   0.0000       0.858953        23.3733 
  58   0.0000       0.903228        24.5781 
  59   0.0000       0.933397        25.3990 
  60   0.0000       0.965978        26.2856 
  61   0.0000       1.085961        29.5505 
  62   0.0000       1.086761        29.5723 
  63   0.0000       1.113782        30.3076 
  64   0.0000       1.118240        30.4289 
  65   0.0000       1.143407        31.1137 
  66   0.0000       1.145453        31.1694 
  67   0.0000       1.168524        31.7972 
  68   0.0000       1.177740        32.0479 
  69   0.0000       1.186062        32.2744 
  70   0.0000       1.189526        32.3686 
  71   0.0000       1.229725        33.4625 
[...]
 3 106   43914.5    227.7   0.00000   0.00001   0.00000   0.00000000020330   0.99096   0.00899   0.00005
 3 107   43914.5    227.7   0.00000   0.00011   0.00000   0.00000000003166   0.55490   0.44443   0.00066
 3 108   44201.1    226.2   0.00000   0.00001   0.00000   0.00000000141387   0.99862   0.00137   0.00001
 3 109   44201.1    226.2   0.00000   0.00000   0.00000   0.00000000072252   0.99976   0.00017   0.00008
 3 110   63836.9    156.6   0.00000   0.00000   0.00000   0.00000000040945   0.99986   0.00010   0.00004
 3 111   63836.9    156.6   0.00000   0.00000   0.00000   0.00000000052706   0.99988   0.00006   0.00006
 3 112   64520.7    155.0   0.00000   0.00000   0.00000   0.00000000090002   0.99969   0.00010   0.00021
 3 113   64520.7    155.0   0.00000   0.00001   0.00000   0.00000000030089   0.99628   0.00355   0.00017
 3 114   65108.3    153.6   0.00000   0.00000   0.00000   0.00000000337775   0.99988   0.00000   0.00012
 3 115   65108.3    153.6   0.00000   0.00001   0.00000   0.00000000784355   0.99970   0.00023   0.00007
 3 116   69698.1    143.5   0.00000   0.00000   0.00000   0.00000000426154   0.99983   0.00010   0.00007
 3 117   69698.1    143.5   0.00000   0.00000   0.00000   0.00000000290992   0.99988   0.00002   0.00010
 3 118   70219.0    142.4   0.00000   0.00002   0.00000   0.00000000030001   0.99181   0.00769   0.00050
 3 119   70219.0    142.4   0.00000   0.00000   0.00000   0.00000000214621   0.99991   0.00002   0.00007

Done

                 =============================
                 AB INITIO LIGAND FIELD THEORY
                       d7 configuration
                          2 CI blocks
                         MOs 19 to 23
                 =============================

Metal/Atom center is atom 0
orbital phases =   1.0   1.0   1.0   1.0   1.0 
Metal/Atom d-orbital parts of active orbitals
Shell 15
             19        20        21        22        23
dz2     :  0.605620 -0.000045 -0.000085 -0.000754  0.000037
dxz     : -0.001191  0.613558  0.000008 -0.000026 -0.000751
dyz     : -0.002359 -0.000343  0.612832 -0.000046 -0.000080
dx2y2   :  0.022475  0.001873  0.002599  0.596473 -0.000000
dxy     : -0.000590  0.007229  0.000309  0.000432  0.606996
Shell 16
             19        20        21        22        23
dz2     :  0.404159  0.000069  0.000249  0.001011 -0.000009
dxz     : -0.000692  0.406370  0.000022  0.000030  0.000132
dyz     : -0.001341 -0.000216  0.409676 -0.000021  0.000069
dx2y2   :  0.016341  0.001286  0.001629  0.395948 -0.000009
dxy     : -0.000425  0.005411  0.000329  0.000279  0.400731
Shell 17
             19        20        21        22        23
dz2     :  0.221218  0.000144 -0.000644 -0.004040  0.000025
dxz     : -0.000297  0.222459 -0.000042 -0.000318  0.000013
dyz     : -0.000942 -0.000124  0.222185 -0.000439 -0.000012
dx2y2   :  0.005583  0.000428  0.001446  0.222185 -0.000044
dxy     : -0.000203  0.002898  0.000118  0.000091  0.219527
Shell 20
             19        20        21        22        23
dz2     :  0.016445 -0.000338 -0.000457  0.005575 -0.000134
dxz     : -0.000400  0.021300 -0.000102  0.000490  0.001604
dyz     :  0.000057 -0.000064  0.020729  0.000649  0.000055
dx2y2   :  0.007286  0.000591  0.001762  0.011412  0.000134
dxy     : -0.000149  0.001791  0.000057  0.000121  0.017678

Adjusting phases of one-electron integrals               ... done
Adjusting phases of two-electron integrals               ... done


-----------------------------------------------------------------
Computing F0s from 2-electron integrals                  ... done 
-----------------------------------------------------------------
F0   =  0.877357387 a.u. =    23.874 eV =  192557.7 cm**-1
-----------------------------------------------------------------

Preparing for fit                                        ... done
Making fit matrices                                      ... done
Calculating ab initio Hamiltonian matrices               ... 
Calculating fit matrices                                 ... done
Fitting                                                  ... done

------------------------------
AILFT MATRIX ELEMENTS (CASSCF)
--------------------------------

Ligand field one-electron matrix VLFT (a.u.) : 
Orbital          dz2        dxz        dyz        dx2-y2     dxy
  dz2         -5.751814  -0.000152  -0.000363  -0.008376   0.000283 
  dxz         -0.000152  -5.743631   0.000048  -0.000473  -0.004854 
  dyz         -0.000363   0.000048  -5.756361  -0.000055  -0.000531 
  dx2-y2      -0.008376  -0.000473  -0.000055  -5.741044  -0.000048 
  dxy          0.000283  -0.004854  -0.000531  -0.000048  -5.733593 

-------------------------------------------------
Slater-Condon Parameters (electronic repulsion) : 
-------------------------------------------------
F0dd(from 2el Ints)     =  0.877357387 a.u. =    23.874 eV =  192557.7 cm**-1 (fixed)
F2dd                    =  0.395346686 a.u. =    10.758 eV =   86768.6 cm**-1
F4dd                    =  0.250140638 a.u. =     6.807 eV =   54899.5 cm**-1
-------------------
Racah Parameters : 
-------------------
A(F0dd from 2el Ints)   =  0.849563983 a.u. =    23.118 eV =  186457.7 cm**-1
B                       =  0.005232238 a.u. =     0.142 eV =    1148.3 cm**-1
C                       =  0.019852432 a.u. =     0.540 eV =    4357.1 cm**-1
C/B                     =  3.794
-------------------------------------------------------------------------------

-----------------------------------------
The ligand field one electron eigenfunctions:
-----------------------------------------
Orbital    Energy (eV)  Energy(cm-1)      dz2        dxz        dyz        dx2-y2     dxy
    1          0.000        0.0        -0.632115  -0.022127  -0.695452  -0.340739  -0.013591 
    2          0.019      149.8        -0.608157  -0.014963   0.718121  -0.337336   0.020681 
    3          0.303     2441.6         0.040094  -0.925821   0.013159  -0.026172  -0.374685 
    4          0.552     4449.3         0.478230   0.042079  -0.006406  -0.877164   0.008245 
    5          0.683     5511.8         0.016256  -0.374661  -0.020846  -0.000247   0.926785 
Ligand field orbitals were stored in rho.casscf.lft.gbw

Calculating ligand field Hamiltonian matrices          ... done
Diagonalizing and fitting the ligand field Hamiltonian ... done
Calculating statistical parameters                     ... done

Reference energy AI-LFT =    -22.331666681 au
Reference energy AI     =    -22.329923280 au

------------------------------------------------
COMPARISON OF AB INITIO AND LIGAND FIELD RESULTS
------------------------------------------------

Block   1
---------
   AI-Root   0: E(AI)=    0.000 eV -> LF-Root   0:     0.000 eV    S= 0.997 Delta=    0.000 eV
   AI-Root   1: E(AI)=    0.027 eV -> LF-Root   1:     0.031 eV    S= 0.996 Delta=   -0.004 eV
   AI-Root   2: E(AI)=    0.063 eV -> LF-Root   2:     0.159 eV    S= 0.999 Delta=   -0.096 eV
   AI-Root   3: E(AI)=    0.082 eV -> LF-Root   3:     0.177 eV    S= 1.000 Delta=   -0.094 eV
   AI-Root   4: E(AI)=    0.295 eV -> LF-Root   4:     0.348 eV    S= 0.997 Delta=   -0.053 eV
   AI-Root   5: E(AI)=    0.301 eV -> LF-Root   5:     0.309 eV    S= 0.999 Delta=   -0.008 eV
   AI-Root   6: E(AI)=    0.355 eV -> LF-Root   6:     0.415 eV    S= 0.996 Delta=   -0.060 eV
   AI-Root   7: E(AI)=    2.090 eV -> LF-Root   7:     2.046 eV    S= 1.000 Delta=    0.044 eV
   AI-Root   8: E(AI)=    2.393 eV -> LF-Root   8:     2.468 eV    S= 1.000 Delta=   -0.075 eV
   AI-Root   9: E(AI)=    2.635 eV -> LF-Root   9:     2.751 eV    S= 0.999 Delta=   -0.116 eV
   (Dropping RMS error for the reference energy)
   RMS error for this block =     0.071 eV =     573.2 cm**-1 

Block   2
---------
   AI-Root   0: E(AI)=    2.161 eV -> LF-Root   0:     2.181 eV    S= 0.997 Delta=   -0.020 eV
   AI-Root   1: E(AI)=    2.171 eV -> LF-Root   1:     2.239 eV    S= 0.993 Delta=   -0.068 eV
   AI-Root   2: E(AI)=    2.214 eV -> LF-Root   2:     2.264 eV    S= 0.988 Delta=   -0.050 eV
   AI-Root   3: E(AI)=    2.242 eV -> LF-Root   3:     2.325 eV    S= 0.999 Delta=   -0.083 eV
   AI-Root   4: E(AI)=    2.262 eV -> LF-Root   4:     2.343 eV    S= 0.993 Delta=   -0.081 eV
   AI-Root   5: E(AI)=    2.323 eV -> LF-Root   5:     2.399 eV    S= 0.993 Delta=   -0.076 eV
   AI-Root   6: E(AI)=    2.354 eV -> LF-Root   6:     2.424 eV    S= 0.987 Delta=   -0.070 eV
   AI-Root   7: E(AI)=    2.424 eV -> LF-Root   7:     2.463 eV    S= 0.997 Delta=   -0.040 eV
   AI-Root   8: E(AI)=    2.433 eV -> LF-Root   8:     2.471 eV    S= 0.995 Delta=   -0.039 eV
   AI-Root   9: E(AI)=    2.667 eV -> LF-Root   9:     2.737 eV    S= 0.998 Delta=   -0.070 eV
   AI-Root  10: E(AI)=    2.670 eV -> LF-Root  10:     2.710 eV    S= 0.993 Delta=   -0.040 eV
   AI-Root  11: E(AI)=    2.810 eV -> LF-Root  11:     2.859 eV    S= 0.923 Delta=   -0.049 eV
   AI-Root  12: E(AI)=    2.886 eV -> LF-Root  12:     2.913 eV    S= 0.921 Delta=   -0.027 eV
   AI-Root  13: E(AI)=    2.889 eV -> LF-Root  13:     2.925 eV    S= 0.990 Delta=   -0.036 eV
   AI-Root  14: E(AI)=    2.906 eV -> LF-Root  14:     2.982 eV    S= 0.990 Delta=   -0.077 eV
   AI-Root  15: E(AI)=    2.965 eV -> LF-Root  15:     2.992 eV    S= 0.988 Delta=   -0.028 eV
   AI-Root  16: E(AI)=    3.100 eV -> LF-Root  16:     3.166 eV    S= 0.981 Delta=   -0.066 eV
   AI-Root  17: E(AI)=    3.159 eV -> LF-Root  17:     3.229 eV    S= 0.987 Delta=   -0.071 eV
   AI-Root  18: E(AI)=    3.161 eV -> LF-Root  18:     3.171 eV    S= 0.989 Delta=   -0.010 eV
   AI-Root  19: E(AI)=    3.164 eV -> LF-Root  19:     3.173 eV    S= 0.988 Delta=   -0.009 eV
   AI-Root  20: E(AI)=    3.250 eV -> LF-Root  20:     3.293 eV    S= 0.973 Delta=   -0.044 eV
   AI-Root  21: E(AI)=    3.383 eV -> LF-Root  21:     3.390 eV    S= 0.987 Delta=   -0.007 eV
   AI-Root  22: E(AI)=    3.385 eV -> LF-Root  22:     3.391 eV    S= 0.987 Delta=   -0.006 eV
   AI-Root  23: E(AI)=    3.449 eV -> LF-Root  23:     3.500 eV    S= 0.975 Delta=   -0.052 eV
   AI-Root  24: E(AI)=    3.476 eV -> LF-Root  24:     3.560 eV    S= 0.998 Delta=   -0.084 eV
   AI-Root  25: E(AI)=    3.487 eV -> LF-Root  25:     3.567 eV    S= 0.978 Delta=   -0.080 eV
   AI-Root  26: E(AI)=    3.525 eV -> LF-Root  26:     3.615 eV    S= 0.998 Delta=   -0.090 eV
   AI-Root  27: E(AI)=    3.566 eV -> LF-Root  27:     3.557 eV    S= 0.999 Delta=    0.009 eV
   AI-Root  28: E(AI)=    5.100 eV -> LF-Root  28:     5.178 eV    S= 0.999 Delta=   -0.077 eV
   AI-Root  29: E(AI)=    5.143 eV -> LF-Root  29:     5.194 eV    S= 1.000 Delta=   -0.050 eV
   AI-Root  30: E(AI)=    5.218 eV -> LF-Root  30:     5.273 eV    S= 0.999 Delta=   -0.055 eV
   AI-Root  31: E(AI)=    5.280 eV -> LF-Root  31:     5.328 eV    S= 0.999 Delta=   -0.048 eV
   AI-Root  32: E(AI)=    5.293 eV -> LF-Root  32:     5.342 eV    S= 0.999 Delta=   -0.050 eV
   AI-Root  33: E(AI)=    5.405 eV -> LF-Root  33:     5.465 eV    S= 0.971 Delta=   -0.061 eV
   AI-Root  34: E(AI)=    5.405 eV -> LF-Root  34:     5.465 eV    S= 0.971 Delta=   -0.060 eV
   AI-Root  35: E(AI)=    7.858 eV -> LF-Root  35:     7.837 eV    S= 0.999 Delta=    0.021 eV
   AI-Root  36: E(AI)=    7.945 eV -> LF-Root  36:     7.963 eV    S= 0.999 Delta=   -0.018 eV
   AI-Root  37: E(AI)=    8.008 eV -> LF-Root  37:     8.139 eV    S= 0.999 Delta=   -0.131 eV
   AI-Root  38: E(AI)=    8.608 eV -> LF-Root  38:     8.622 eV    S= 0.992 Delta=   -0.015 eV
   AI-Root  39: E(AI)=    8.623 eV -> LF-Root  39:     8.628 eV    S= 0.991 Delta=   -0.005 eV
   RMS error for this block =     0.057 eV =     459.6 cm**-1 

Total RMS error g=     0.060 eV =     482.5 cm**-1
Note: Dropped RMS error for the reference energy.

Confidence intervals (95%) computed from the square root of the
diagonal elements of the covariance matrix:
H(dz2   ,dz2   )=  0.000252973 a.u. =     0.007 eV =      55.5 cm**-1
H(dxz   ,dz2   )=  0.000214018 a.u. =     0.006 eV =      47.0 cm**-1
H(dxz   ,dxz   )=  0.000252973 a.u. =     0.007 eV =      55.5 cm**-1
H(dyz   ,dz2   )=  0.000214018 a.u. =     0.006 eV =      47.0 cm**-1
H(dyz   ,dxz   )=  0.000214018 a.u. =     0.006 eV =      47.0 cm**-1
H(dyz   ,dyz   )=  0.000252973 a.u. =     0.007 eV =      55.5 cm**-1
H(dx2-y2,dz2   )=  0.000214018 a.u. =     0.006 eV =      47.0 cm**-1
H(dx2-y2,dxz   )=  0.000214018 a.u. =     0.006 eV =      47.0 cm**-1
H(dx2-y2,dyz   )=  0.000214018 a.u. =     0.006 eV =      47.0 cm**-1
H(dx2-y2,dx2-y2)=  0.000252973 a.u. =     0.007 eV =      55.5 cm**-1
H(dxy   ,dz2   )=  0.000214018 a.u. =     0.006 eV =      47.0 cm**-1
H(dxy   ,dxz   )=  0.000214018 a.u. =     0.006 eV =      47.0 cm**-1
H(dxy   ,dyz   )=  0.000214018 a.u. =     0.006 eV =      47.0 cm**-1
H(dxy   ,dx2-y2)=  0.000214018 a.u. =     0.006 eV =      47.0 cm**-1
H(dxy   ,dxy   )=  0.000252973 a.u. =     0.007 eV =      55.5 cm**-1
F2dd            =  0.000908471 a.u. =     0.025 eV =     199.4 cm**-1
F4dd            =  0.001317606 a.u. =     0.036 eV =     289.2 cm**-1
Pearson's correlation coefficient =    1.000 (should be close to 1)

----------------------------------------------
SPIN ORBIT COUPLING (based on CASSCF orbitals)
----------------------------------------------

AI-SOC-X integrals (cm-1)
                  0          1          2          3          4    
      0       0.000000   0.014854 896.247999   2.141936  -1.152337
      1      -0.014854   0.000000   1.757105   0.612462 507.067520
      2     -896.247999  -1.757105   0.000000 -498.182292  -0.108296
      3      -2.141936  -0.612462 498.182292   0.000000  -0.155094
      4       1.152337 -507.067520   0.108296   0.155094   0.000000
AI-SOC-Y integrals (cm-1)
                  0          1          2          3          4    
      0      -0.000000 -859.630233  -0.463231   0.949748   5.336598
      1     859.630233  -0.000000   1.619574 -498.751597   0.334841
      2       0.463231  -1.619574  -0.000000  -0.356732 -512.888189
      3      -0.949748 498.751597   0.356732   0.000000   0.058239
      4      -5.336598  -0.334841 512.888189  -0.058239   0.000000
AI-SOC-Z integrals (cm-1)
                  0          1          2          3          4    
      0      -0.000000  -0.976119   1.109278  -0.939686 -41.791595
      1       0.976119   0.000000 -513.922240  10.338364  -3.166538
      2      -1.109278 513.922240  -0.000000   0.445292  -6.800806
      3       0.939686 -10.338364  -0.445292  -0.000000 -990.370899
      4      41.791595   3.166538   6.800806 990.370899  -0.000000

Fit to the SOC matrix elements
a = 15.000000
b =     0.936 eV =    7552.8 cm**-1
SOC constant zeta =     0.062 eV =     503.5 cm**-1


LF-SOC-X integrals (cm-1)
                  0          1          2          3          4    
      0       0.000000  -0.000000 872.124988  -0.000000  -0.000000
      1       0.000000   0.000000  -0.000000  -0.000000 503.521596
      2     -872.124988   0.000000   0.000000 -503.521596  -0.000000
      3       0.000000   0.000000 503.521596   0.000000  -0.000000
      4       0.000000 -503.521596   0.000000   0.000000   0.000000
LF-SOC-Y integrals (cm-1)
                  0          1          2          3          4    
      0       0.000000 -872.124988  -0.000000  -0.000000  -0.000000
      1     872.124988   0.000000  -0.000000 -503.521596  -0.000000
      2       0.000000   0.000000   0.000000  -0.000000 -503.521596
      3       0.000000 503.521596   0.000000   0.000000  -0.000000
      4       0.000000   0.000000 503.521596   0.000000   0.000000
LF-SOC-Z integrals (cm-1)
                  0          1          2          3          4    
      0       0.000000  -0.000000  -0.000000  -0.000000  -0.000000
      1       0.000000   0.000000 -503.521596  -0.000000  -0.000000
      2       0.000000 503.521596   0.000000  -0.000000  -0.000000
      3       0.000000   0.000000   0.000000   0.000000 -1007.043193
      4       0.000000   0.000000   0.000000 1007.043193   0.000000

RMS error of nonzero matrix elements =   10.7 cm**-1


-----SOC-CONSTANTS-----
---All Values in cm-1---
ZETA_D = 503.52 
------------------------




---AILFT COMPLETED SUCCESFULLY!---

--------------
CASSCF TIMINGS
--------------

Total time                       ...        9.7 sec
Sum of individual times          ...        9.4 sec ( 96.7%)

Calculation of AO operators
   F(Core) operator              ...        2.1 sec ( 21.5%)
   G(Act) operator               ...        0.8 sec (  8.7%)
   J(AO) operators               ...        0.0 sec (  0.0%)
Calculation of MO transformed quantities
   J(MO) operators               ...        0.3 sec (  3.0%)
   (pq|rs) integrals             ...        0.0 sec (  0.0%)
   AO->MO one electron integrals ...        0.0 sec (  0.1%)
Configuration interaction steps
   CI-setup phase                ...        0.0 sec (  0.4%)
   CI-solution phase             ...        0.1 sec (  1.3%)
   Generation of densities       ...        0.0 sec (  0.3%)
Orbital improvement steps
   Orbital gradient              ...        0.0 sec (  0.1%)
   O(1) converger                ...        0.0 sec (  0.1%)
Properties                       ...        3.8 sec ( 38.6%)
   SOC integral calculation      ...        2.1 sec ( 21.4%)
   SSC RMEs (incl. integrals)    ...        0.0 sec (  0.0%)
   SOC RMEs                      ...        0.1 sec (  1.2%)

Maximum memory used throughout the entire CASSCF-calculation: 250.9 MB

-------------------------   --------------------
FINAL SINGLE POINT ENERGY     -1470.977629581733
-------------------------   --------------------


                            ***************************************
                            *     ORCA property calculations      *
                            ***************************************

                                    ---------------------
                                    Active property flags
                                    ---------------------
   (+) Dipole Moment


------------------------------------------------------------------------------
                       ORCA ELECTRIC PROPERTIES CALCULATION
------------------------------------------------------------------------------

Dipole Moment Calculation                       ... on
Quadrupole Moment Calculation                   ... off
Polarizability Calculation                      ... off
GBWName                                         ... rho.gbw
Electron density                                ... rho.scfp
The origin for moment calculation is the CENTER OF MASS  = ( 0.004198, -0.797983  0.330711)

-------------
DIPOLE MOMENT
-------------
                                X             Y             Z
Electronic contribution:      0.02509      -4.79812       1.98652
Nuclear contribution   :     -0.02119       4.02709      -1.66886
                        -----------------------------------------
Total Dipole Moment    :      0.00390      -0.77103       0.31766
                        -----------------------------------------
Magnitude (a.u.)       :      0.83391
Magnitude (Debye)      :      2.11964



--------------------
Rotational spectrum 
--------------------
 
Rotational constants in cm-1:     1.036732     0.146978     0.135436 
Rotational constants in MHz : 31080.445825  4406.298657  4060.277695 

 Dipole components along the rotational axes: 
x,y,z [a.u.] :    -0.000428    -0.833911    -0.001080 
x,y,z [Debye]:    -0.001089    -2.119634    -0.002744 

 

Timings for individual modules:

Sum of individual times         ...       27.581 sec (=   0.460 min)
GTO integral calculation        ...        6.062 sec (=   0.101 min)  22.0 %
Relativistic integrals          ...        2.833 sec (=   0.047 min)  10.3 %
SCF iterations                  ...        2.704 sec (=   0.045 min)   9.8 %
CASSCF iterations               ...       15.982 sec (=   0.266 min)  57.9 %
                             ****ORCA TERMINATED NORMALLY****
TOTAL RUN TIME: 0 days 0 hours 0 minutes 32 seconds 661 msec
