
                                 *****************
                                 * O   R   C   A *
                                 *****************

                                            #,                                       
                                            ###                                      
                                            ####                                     
                                            #####                                    
                                            ######                                   
                                           ########,                                 
                                     ,,################,,,,,                         
                               ,,#################################,,                 
                          ,,##########################################,,             
                       ,#########################################, ''#####,          
                    ,#############################################,,   '####,        
                  ,##################################################,,,,####,       
                ,###########''''           ''''###############################       
              ,#####''   ,,,,##########,,,,          '''####'''          '####       
            ,##' ,,,,###########################,,,                        '##       
           ' ,,###''''                  '''############,,,                           
         ,,##''                                '''############,,,,        ,,,,,,###''
      ,#''                                            '''#######################'''  
     '                                                          ''''####''''         
             ,#######,   #######,   ,#######,      ##                                
            ,#'     '#,  ##    ##  ,#'     '#,    #''#        ######   ,####,        
            ##       ##  ##   ,#'  ##            #'  '#       #        #'  '#        
            ##       ##  #######   ##           ,######,      #####,   #    #        
            '#,     ,#'  ##    ##  '#,     ,#' ,#      #,         ##   #,  ,#        
             '#######'   ##     ##  '#######'  #'      '#     #####' # '####'        



                  #######################################################
                  #                        -***-                        #
                  #          Department of theory and spectroscopy      #
                  #    Directorship and core code : Frank Neese         #
                  #        Max Planck Institute fuer Kohlenforschung    #
                  #                Kaiser Wilhelm Platz 1               #
                  #                 D-45470 Muelheim/Ruhr               #
                  #                      Germany                        #
                  #                                                     #
                  #                  All rights reserved                #
                  #                        -***-                        #
                  #######################################################


                         Program Version 5.0.4 -  RELEASE  -


 With contributions from (in alphabetic order):
   Daniel Aravena         : Magnetic Suceptibility
   Michael Atanasov       : Ab Initio Ligand Field Theory (pilot matlab implementation)
   Alexander A. Auer      : GIAO ZORA, VPT2 properties, NMR spectrum
   Ute Becker             : Parallelization
   Giovanni Bistoni       : ED, misc. LED, open-shell LED, HFLD
   Martin Brehm           : Molecular dynamics
   Dmytro Bykov           : SCF Hessian
   Vijay G. Chilkuri      : MRCI spin determinant printing, contributions to CSF-ICE
   Dipayan Datta          : RHF DLPNO-CCSD density
   Achintya Kumar Dutta   : EOM-CC, STEOM-CC
   Dmitry Ganyushin       : Spin-Orbit,Spin-Spin,Magnetic field MRCI
   Miquel Garcia          : C-PCM and meta-GGA Hessian, CC/C-PCM, Gaussian charge scheme
   Yang Guo               : DLPNO-NEVPT2, F12-NEVPT2, CIM, IAO-localization
   Andreas Hansen         : Spin unrestricted coupled pair/coupled cluster methods
   Benjamin Helmich-Paris : MC-RPA, TRAH-SCF, COSX integrals
   Lee Huntington         : MR-EOM, pCC
   Robert Izsak           : Overlap fitted RIJCOSX, COSX-SCS-MP3, EOM
   Marcus Kettner         : VPT2
   Christian Kollmar      : KDIIS, OOCD, Brueckner-CCSD(T), CCSD density, CASPT2, CASPT2-K
   Simone Kossmann        : Meta GGA functionals, TD-DFT gradient, OOMP2, MP2 Hessian
   Martin Krupicka        : Initial AUTO-CI
   Lucas Lang             : DCDCAS
   Marvin Lechner         : AUTO-CI (C++ implementation), FIC-MRCC
   Dagmar Lenk            : GEPOL surface, SMD
   Dimitrios Liakos       : Extrapolation schemes; Compound Job, initial MDCI parallelization
   Dimitrios Manganas     : Further ROCIS development; embedding schemes
   Dimitrios Pantazis     : SARC Basis sets
   Anastasios Papadopoulos: AUTO-CI, single reference methods and gradients
   Taras Petrenko         : DFT Hessian,TD-DFT gradient, ASA, ECA, R-Raman, ABS, FL, XAS/XES, NRVS
   Peter Pinski           : DLPNO-MP2, DLPNO-MP2 Gradient
   Christoph Reimann      : Effective Core Potentials
   Marius Retegan         : Local ZFS, SOC
   Christoph Riplinger    : Optimizer, TS searches, QM/MM, DLPNO-CCSD(T), (RO)-DLPNO pert. Triples
   Tobias Risthaus        : Range-separated hybrids, TD-DFT gradient, RPA, STAB
   Michael Roemelt        : Original ROCIS implementation
   Masaaki Saitow         : Open-shell DLPNO-CCSD energy and density
   Barbara Sandhoefer     : DKH picture change effects
   Avijit Sen             : IP-ROCIS
   Kantharuban Sivalingam : CASSCF convergence, NEVPT2, FIC-MRCI
   Bernardo de Souza      : ESD, SOC TD-DFT
   Georgi Stoychev        : AutoAux, RI-MP2 NMR, DLPNO-MP2 response
   Willem Van den Heuvel  : Paramagnetic NMR
   Boris Wezisla          : Elementary symmetry handling
   Frank Wennmohs         : Technical directorship


 We gratefully acknowledge several colleagues who have allowed us to
 interface, adapt or use parts of their codes:
   Stefan Grimme, W. Hujo, H. Kruse, P. Pracht,  : VdW corrections, initial TS optimization,
                  C. Bannwarth, S. Ehlert          DFT functionals, gCP, sTDA/sTD-DF
   Ed Valeev, F. Pavosevic, A. Kumar             : LibInt (2-el integral package), F12 methods
   Garnet Chan, S. Sharma, J. Yang, R. Olivares  : DMRG
   Ulf Ekstrom                                   : XCFun DFT Library
   Mihaly Kallay                                 : mrcc  (arbitrary order and MRCC methods)
   Jiri Pittner, Ondrej Demel                    : Mk-CCSD
   Frank Weinhold                                : gennbo (NPA and NBO analysis)
   Christopher J. Cramer and Donald G. Truhlar   : smd solvation model
   Lars Goerigk                                  : TD-DFT with DH, B97 family of functionals
   V. Asgeirsson, H. Jonsson                     : NEB implementation
   FAccTs GmbH                                   : IRC, NEB, NEB-TS, DLPNO-Multilevel, CI-OPT
                                                   MM, QMMM, 2- and 3-layer-ONIOM, Crystal-QMMM,
                                                   LR-CPCM, SF, NACMEs, symmetry and pop. for TD-DFT,
                                                   nearIR, NL-DFT gradient (VV10), updates on ESD,
                                                   ML-optimized integration grids
   S Lehtola, MJT Oliveira, MAL Marques          : LibXC Library
   Liviu Ungur et al                             : ANISO software


 Your calculation uses the libint2 library for the computation of 2-el integrals
 For citations please refer to: http://libint.valeyev.net

 Your ORCA version has been built with support for libXC version: 5.1.0
 For citations please refer to: https://tddft.org/programs/libxc/

 This ORCA versions uses:
   CBLAS   interface :  Fast vector & matrix operations
   LAPACKE interface :  Fast linear algebra routines
   SCALAPACK package :  Parallel linear algebra routines
   Shared memory     :  Shared parallel matrices
   BLAS/LAPACK       :  OpenBLAS 0.3.15  USE64BITINT DYNAMIC_ARCH NO_AFFINITY Zen SINGLE_THREADED
        Core in use  :  Zen
   Copyright (c) 2011-2014, The OpenBLAS Project




***************************************
The coordinates will be read from file: geo.xyz
***************************************


================================================================================

----- Orbital basis set information -----
Your calculation utilizes the basis: DKH-def2-TZVPP
   Exponents from def2-TZVPP [F. Weigend and R. Ahlrichs, Phys. Chem. Chem. Phys. 7, 3297 (2005)],
   recontracted for DKH2 by D. A. Pantazis.

----- AuxJ basis set information -----
Your calculation utilizes the AutoAux generation procedure.
  G. L. Stoychev, A. A. Auer, F. Neese, J. Chem. Theory Comput. 13, 554 (2017)

----- AuxC basis set information -----
Your calculation utilizes the AutoAux generation procedure.
  G. L. Stoychev, A. A. Auer, F. Neese, J. Chem. Theory Comput. 13, 554 (2017)

----- AuxJK basis set information -----
Your calculation utilizes the AutoAux generation procedure.
  G. L. Stoychev, A. A. Auer, F. Neese, J. Chem. Theory Comput. 13, 554 (2017)

================================================================================
                                        WARNINGS
                       Please study these warnings very carefully!
================================================================================


INFO   : the flag for use of the SHARK integral package has been found!

================================================================================
                                       INPUT FILE
================================================================================
NAME = rho.inp
|  1> !CASSCF  DKH DKH-def2-TZVPP  RIJCOSX NoSFitting VeryTightSCF autoaux moread SlowConv
|  2> %moinp "orb.gbw"
|  3> %pal
|  4> nprocs 10
|  5> end
|  6> %maxcore 4000
|  7> # swap
|  8> %scf
|  9>  Rotate
| 10>   { 24, 22 }
| 11>  end
| 12> end
| 13> #
| 14> %rel
| 15>  picturechange 2
| 16> end
| 17> %casscf
| 18>  nel  7
| 19>  norb 5
| 20>  mult 4,2
| 21>  nroots 10,40
| 22>  maxiter 100
| 23>  ActOrbs dOrbs
| 24>  rel
| 25>   printlevel 3
| 26>   dosoc true
| 27>   gtensor true
| 28>   quad true
| 29>  end
| 30> end
| 31> * xyzfile 0 4 geo.xyz *
| 32> 
| 33>                          ****END OF INPUT****
================================================================================

                       ****************************
                       * Single Point Calculation *
                       ****************************

---------------------------------
CARTESIAN COORDINATES (ANGSTROEM)
---------------------------------
  Co    -0.000000    0.000000   -0.000000
  C      1.902958   -0.000032    0.000047
  N      3.076577    0.000016   -0.000023
  C     -1.902957    0.000032   -0.000047
  N     -3.076577   -0.000016    0.000024

----------------------------
CARTESIAN COORDINATES (A.U.)
----------------------------
  NO LB      ZA    FRAG     MASS         X           Y           Z
   0 Co   27.0000    0    58.930   -0.000000    0.000000   -0.000000
   1 C     6.0000    0    12.011    3.596069   -0.000060    0.000089
   2 N     7.0000    0    14.007    5.813887    0.000030   -0.000044
   3 C     6.0000    0    12.011   -3.596068    0.000060   -0.000089
   4 N     7.0000    0    14.007   -5.813887   -0.000030    0.000044

--------------------------------
INTERNAL COORDINATES (ANGSTROEM)
--------------------------------
 Co     0   0   0     0.000000000000     0.00000000     0.00000000
 C      1   0   0     1.902957628676     0.00000000     0.00000000
 N      2   1   0     1.173618990987   179.99412014     0.00000000
 C      1   2   3     1.902957466124   179.99999600     0.00000000
 N      4   1   2     1.173619250211   179.99411932     0.00000000

---------------------------
INTERNAL COORDINATES (A.U.)
---------------------------
 Co     0   0   0     0.000000000000     0.00000000     0.00000000
 C      1   0   0     3.596068762653     0.00000000     0.00000000
 N      2   1   0     2.217818478535   179.99412014     0.00000000
 C      1   2   3     3.596068455475   179.99999600     0.00000000
 N      4   1   2     2.217818968397   179.99411932     0.00000000

---------------------
BASIS SET INFORMATION
---------------------
There are 3 groups of distinct atoms

 Group   1 Type Co  : 17s12p7d2f1g contracted to 10s7p4d2f1g pattern {8111111111/6111111/4111/11/1}
 Group   2 Type C   : 11s6p2d1f contracted to 6s3p2d1f pattern {611111/411/11/1}
 Group   3 Type N   : 11s6p2d1f contracted to 6s3p2d1f pattern {611111/411/11/1}

Atom   0Co   basis set group =>   1
Atom   1C    basis set group =>   2
Atom   2N    basis set group =>   3
Atom   3C    basis set group =>   2
Atom   4N    basis set group =>   3
---------------------------------
AUXILIARY/J BASIS SET INFORMATION
---------------------------------
There are 3 groups of distinct atoms

 Group   1 Type Co  : 22s18p17d17f16g6h3i contracted to 22s18p17d17f16g6h3i pattern {1111111111111111111111/111111111111111111/11111111111111111/11111111111111111/1111111111111111/111111/111}
 Group   2 Type C   : 16s13p12d7f3g contracted to 16s13p12d7f3g pattern {1111111111111111/1111111111111/111111111111/1111111/111}
 Group   3 Type N   : 16s13p12d7f3g contracted to 16s13p12d7f3g pattern {1111111111111111/1111111111111/111111111111/1111111/111}

Atom   0Co   basis set group =>   1
Atom   1C    basis set group =>   2
Atom   2N    basis set group =>   3
Atom   3C    basis set group =>   2
Atom   4N    basis set group =>   3
---------------------------------
AUXILIARY/C BASIS SET INFORMATION
---------------------------------
There are 3 groups of distinct atoms

 Group   1 Type Co  : 22s18p17d17f16g6h3i contracted to 22s18p17d17f16g6h3i pattern {1111111111111111111111/111111111111111111/11111111111111111/11111111111111111/1111111111111111/111111/111}
 Group   2 Type C   : 16s13p12d7f3g contracted to 16s13p12d7f3g pattern {1111111111111111/1111111111111/111111111111/1111111/111}
 Group   3 Type N   : 16s13p12d7f3g contracted to 16s13p12d7f3g pattern {1111111111111111/1111111111111/111111111111/1111111/111}

Atom   0Co   basis set group =>   1
Atom   1C    basis set group =>   2
Atom   2N    basis set group =>   3
Atom   3C    basis set group =>   2
Atom   4N    basis set group =>   3
----------------------------------
AUXILIARY/JK BASIS SET INFORMATION
----------------------------------
There are 3 groups of distinct atoms

 Group   1 Type Co  : 22s18p17d17f16g6h3i contracted to 22s18p17d17f16g6h3i pattern {1111111111111111111111/111111111111111111/11111111111111111/11111111111111111/1111111111111111/111111/111}
 Group   2 Type C   : 16s13p12d7f3g contracted to 16s13p12d7f3g pattern {1111111111111111/1111111111111/111111111111/1111111/111}
 Group   3 Type N   : 16s13p12d7f3g contracted to 16s13p12d7f3g pattern {1111111111111111/1111111111111/111111111111/1111111/111}

Atom   0Co   basis set group =>   1
Atom   1C    basis set group =>   2
Atom   2N    basis set group =>   3
Atom   3C    basis set group =>   2
Atom   4N    basis set group =>   3


           ************************************************************
           *        Program running with 10 parallel MPI-processes    *
           *              working on a common directory               *
           ************************************************************
------------------------------------------------------------------------------
                           ORCA GTO INTEGRAL CALCULATION
                           -- RI-GTO INTEGRALS CHOSEN --
------------------------------------------------------------------------------
------------------------------------------------------------------------------
                   ___                                                        
                  /   \      - P O W E R E D   B Y -                         
                 /     \                                                     
                 |  |  |   _    _      __       _____    __    __             
                 |  |  |  | |  | |    /  \     |  _  \  |  |  /  |          
                  \  \/   | |  | |   /    \    | | | |  |  | /  /          
                 / \  \   | |__| |  /  /\  \   | |_| |  |  |/  /          
                |  |  |   |  __  | /  /__\  \  |    /   |      \           
                |  |  |   | |  | | |   __   |  |    \   |  |\   \          
                \     /   | |  | | |  |  |  |  | |\  \  |  | \   \       
                 \___/    |_|  |_| |__|  |__|  |_| \__\ |__|  \__/        
                                                                              
                      - O R C A' S   B I G   F R I E N D -                    
                                      &                                       
                       - I N T E G R A L  F E E D E R -                       
                                                                              
 v1 FN, 2020, v2 2021                                                         
------------------------------------------------------------------------------


Reading SHARK input file rho.SHARKINP.tmp ... ok
----------------------
SHARK INTEGRAL PACKAGE
----------------------

Number of atoms                             ...      5
Number of basis functions                   ...    202
Number of shells                            ...     72
Maximum angular momentum                    ...      4
Integral batch strategy                     ... SHARK/LIBINT Hybrid
RI-J (if used) integral strategy            ... SPLIT-RIJ (Revised 2003 algorithm where possible)
Printlevel                                  ...      1
Contraction scheme used                     ... SEGMENTED contraction
Coulomb Range Separation                    ... NOT USED
Exchange Range Separation                   ... NOT USED
Finite Nucleus Model                        ... NOT USED
Auxiliary Coulomb fitting basis             ... AVAILABLE
   # of basis functions in Aux-J            ...   1293
   # of shells in Aux-J                     ...    303
   Maximum angular momentum in Aux-J        ...      6
Auxiliary J/K fitting basis                 ... AVAILABLE
   # of basis functions in Aux-JK           ...   1293
   # of shells in Aux-JK                    ...    303
   Maximum angular momentum in Aux-JK       ...      6
Auxiliary Correlation fitting basis         ... AVAILABLE
   # of basis functions in Aux-C            ...   1293
   # of shells in Aux-C                     ...    303
   Maximum angular momentum in Aux-C        ...      6
Auxiliary 'external' fitting basis          ... NOT available
Integral threshold                          ...     1.000000e-12
Primitive cut-off                           ...     1.000000e-14
Primitive pair pre-selection threshold      ...     1.000000e-14

Calculating pre-screening integrals         ... done (  0.1 sec) Dimension = 72
Organizing shell pair data                  ... done (  0.0 sec)
Shell pair information
Total number of shell pairs                 ...      2628
Shell pairs after pre-screening             ...      2256
Total number of primitive shell pairs       ...      7273
Primitive shell pairs kept                  ...      4983
          la=0 lb=0:    458 shell pairs
          la=1 lb=0:    558 shell pairs
          la=1 lb=1:    181 shell pairs
          la=2 lb=0:    346 shell pairs
          la=2 lb=1:    212 shell pairs
          la=2 lb=2:     73 shell pairs
          la=3 lb=0:    172 shell pairs
          la=3 lb=1:    106 shell pairs
          la=3 lb=2:     64 shell pairs
          la=3 lb=3:     20 shell pairs
          la=4 lb=0:     28 shell pairs
          la=4 lb=1:     19 shell pairs
          la=4 lb=2:     12 shell pairs
          la=4 lb=3:      6 shell pairs
          la=4 lb=4:      1 shell pairs

Calculating one electron integrals          ... done (  0.0 sec)
Calculating RI/J V-Matrix + Cholesky decomp.... done (  0.1 sec)
Calculating RI/JK V-Matrix + Cholesky decomp... done (  0.1 sec)
Calculating RI/C V-Matrix + Cholesky decomp.... done (  0.1 sec)
Calculating Nuclear repulsion               ... done (  0.0 sec) ENN=    211.136414098041 Eh

SHARK setup successfully completed in   0.7 seconds

Maximum memory used throughout the entire GTOINT-calculation: 36.4 MB


           ************************************************************
           *        Program running with 10 parallel MPI-processes    *
           *              working on a common directory               *
           ************************************************************
------------------------------------------------------------------------------
                          ORCA RELATIVISTIC HAMILTONIAN
------------------------------------------------------------------------------

Relativistic Method            ... DKH
Order of DKH treatment         ...   2
Treatment of potential         ... V(e,N)
Eps parameter for DKH          ...   0.00000000010000
Nucleus model                  ... Point Nucleus
Speed of light used            ... 137.03598950000000


            ************************************************
            *        DOUGLAS-KROLL-HESS HAMILTONIAN        *
            *   Programmed by FN according to literature   *
            *        procedures. Special thanks to         *
            *       B.A. Hess, M. Reiher and A. Wolf       *
            *     University Erlangen-Nuernberg/Bonn       *
            ************************************************

Uncontracting the basis (first version)        ... done
Number of contracted basis functions           ...  202
Number of uncontracted basis functions         ...  295
Initializing the DKH file                      ... done
Calculating the relativistic integrals         ... done
Storing DKH matrices                           ... done
Code used for DKH trafo                        ... ORCA
Computing the DKH transformation               ... done
Storing the transformation variables           ... done
Transforming V and pVp to p**2 space           ... done
First transformation of V and pVp              ... done
Second transformation of Veff                  ... done
Adding kinetic energy                          ... done
Back transformation of Veff to r-space         ... done
Recovering DKH matrices                        ... done
Recontracting the H-matrix (first version)     ... done
Computing the DKH correction to the H-matrix   ... done
Reading the original H-matrix                  ... done
Adding DKH correction to the H-matrix          ... done
Storing the new modified H-matrix              ... done

Maximum memory used throughout the entire REL-calculation: 68.8 MB


           ************************************************************
           *        Program running with 10 parallel MPI-processes    *
           *              working on a common directory               *
           ************************************************************
-------------------------------------------------------------------------------
                                 ORCA SCF
-------------------------------------------------------------------------------

------------
SCF SETTINGS
------------
Hamiltonian:
 Ab initio Hamiltonian  Method          .... Hartree-Fock(GTOs)
 RI-approximation to the Coulomb term is turned on
   Number of AuxJ basis functions       .... 1293
   RIJ-COSX (HFX calculated with COS-X)).... on

Relativistic Settings:
 Scalar relativistic method             .... Douglas-Kroll-Hess
 Order of DKH procedure    Order        ....    2
 Mode of DKH-treatment                  .... V=V(e,N)
 Speed of light used       Velit        ....       137.035989
 Cutoff-constant           Eps          ....            1e-10 


General Settings:
 Integral files         IntName         .... rho
 Hartree-Fock type      HFTyp           .... CASSCF
 Total Charge           Charge          ....    0
 Multiplicity           Mult            ....    4
 Number of Electrons    NEL             ....   53
 Basis Dimension        Dim             ....  202
 Nuclear Repulsion      ENuc            ....    211.1364140980 Eh


Diagonalization of the overlap matrix:
Smallest eigenvalue                        ... 2.155e-04
Time for diagonalization                   ...    0.007 sec
Threshold for overlap eigenvalues          ... 1.000e-08
Number of eigenvalues below threshold      ... 0
Time for construction of square roots      ...    0.004 sec
Total time needed                          ...    0.014 sec

---------------------
INITIAL GUESS: MOREAD
---------------------
Guess MOs are being read from file: orb.gbw
Input Geometry matches current geometry (good)
Atom 0: N(Shells)= 24 and 18 - projection required
Input basis set needs projection
NBasis(read)= 188
NBasis(calc)= 202
Basis set overlap was calculated
Using GuessMode=CMatrix for the initial guess
Initial orthogonal set was formed
CASSCF - fitting 2 shells:
   closed-shell contains  23 orbitals (  0 ...  22)
   active space contains   5 orbitals ( 23 ...  27)
Virtual orbitals were projected
Gram-Schmidt orthogonalization of all MOs with pivot on actives
-----------------
ORBITAL ROTATIONS
-----------------
  Rotation  24(0)   22(0) cos(t)= 0.000000  sin(t)= 1.000000
  Orbital Energies were swapped
Initial density was built
Canonicalizing active space vectors CAS(7,5) {23-27} C(202,202) Cact Ract BOVL(188,202) COVL Diag BackTrafo Restore
Active space vectors have been canonicalized
                      ------------------
                      INITIAL GUESS DONE (   0.1 sec)
                      ------------------
--------------------
COSX GRID GENERATION
--------------------

GRIDX 1
-------
General Integration Accuracy     IntAcc      ... 3.816
Radial Grid Type                 RadialGrid  ... OptM3 with GC (2021)
Angular Grid (max. ang.)         AngularGrid ... 1 (Lebedev-50)
Angular grid pruning method      GridPruning ... 4 (adaptive)
Weight generation scheme         WeightScheme... Becke
Basis function cutoff            BFCut       ... 1.0000e-12
Integration weight cutoff        WCut        ... 1.0000e-14
Angular grids for H and He will be reduced by one unit
Partially contracted basis set               ... on
Rotationally invariant grid construction     ... off

Total number of grid points                  ...     4278
Total number of batches                      ...       68
Average number of points per batch           ...       62
Average number of grid points per atom       ...      856

GRIDX 2
-------
General Integration Accuracy     IntAcc      ... 4.020
Radial Grid Type                 RadialGrid  ... OptM3 with GC (2021)
Angular Grid (max. ang.)         AngularGrid ... 2 (Lebedev-110)
Angular grid pruning method      GridPruning ... 4 (adaptive)
Weight generation scheme         WeightScheme... Becke
Basis function cutoff            BFCut       ... 1.0000e-12
Integration weight cutoff        WCut        ... 1.0000e-14
Angular grids for H and He will be reduced by one unit
Partially contracted basis set               ... on
Rotationally invariant grid construction     ... off

Total number of grid points                  ...    10140
Total number of batches                      ...      161
Average number of points per batch           ...       62
Average number of grid points per atom       ...     2028

GRIDX 3
-------
General Integration Accuracy     IntAcc      ... 4.338
Radial Grid Type                 RadialGrid  ... OptM3 with GC (2021)
Angular Grid (max. ang.)         AngularGrid ... 3 (Lebedev-194)
Angular grid pruning method      GridPruning ... 4 (adaptive)
Weight generation scheme         WeightScheme... Becke
Basis function cutoff            BFCut       ... 1.0000e-12
Integration weight cutoff        WCut        ... 1.0000e-14
Angular grids for H and He will be reduced by one unit
Partially contracted basis set               ... on
Rotationally invariant grid construction     ... off

Total number of grid points                  ...    22796
Total number of batches                      ...      360
Average number of points per batch           ...       63
Average number of grid points per atom       ...     4559

Time for X-Grid setup             =    0.170 sec



 ... the calculation is a CASSCF calculation -I'm leaving here GOOD LUCK!!!



           ************************************************************
           *        Program running with 10 parallel MPI-processes    *
           *              working on a common directory               *
           ************************************************************
-------------------------------------------------------------------------------
                              ORCA-CASSCF
-------------------------------------------------------------------------------

Setting up the integral package       ... done
Setting up the integral package (RI)  ... done
Building the CAS space                ... done (10 configurations for Mult=4)
Building the CAS space                ... done (30 configurations for Mult=2)

SYSTEM-SPECIFIC SETTINGS:
Number of active electrons          ...    7
Number of active orbitals           ...    5
Total number of electrons           ...   53
Total number of orbitals            ...  202
Total number aux. functions         ... 1293

Determined orbital ranges:
   Internal       0 -   22 (  23 orbitals)
   Active        23 -   27 (   5 orbitals)
   External      28 -  201 ( 174 orbitals)
Number of rotation parameters      ...   4987

CI-STEP:
CI strategy                         ... General CI
Number of multiplicity blocks       ...    2
BLOCK  1 WEIGHT=   0.5000
  Multiplicity                      ...    4
  #(Configurations)                 ...   10
  #(CSFs)                           ...   10
  #(Roots)                          ...   10
    ROOT=0 WEIGHT=    0.050000
    ROOT=1 WEIGHT=    0.050000
    ROOT=2 WEIGHT=    0.050000
    ROOT=3 WEIGHT=    0.050000
    ROOT=4 WEIGHT=    0.050000
    ROOT=5 WEIGHT=    0.050000
    ROOT=6 WEIGHT=    0.050000
    ROOT=7 WEIGHT=    0.050000
    ROOT=8 WEIGHT=    0.050000
    ROOT=9 WEIGHT=    0.050000

BLOCK  2 WEIGHT=   0.5000
  Multiplicity                      ...    2
  #(Configurations)                 ...   30
  #(CSFs)                           ...   40
  #(Roots)                          ...   40
    ROOT=0 WEIGHT=    0.012500
    ROOT=1 WEIGHT=    0.012500
    ROOT=2 WEIGHT=    0.012500
    ROOT=3 WEIGHT=    0.012500
    ROOT=4 WEIGHT=    0.012500
    ROOT=5 WEIGHT=    0.012500
    ROOT=6 WEIGHT=    0.012500
    ROOT=7 WEIGHT=    0.012500
    ROOT=8 WEIGHT=    0.012500
    ROOT=9 WEIGHT=    0.012500
    ROOT=10 WEIGHT=    0.012500
    ROOT=11 WEIGHT=    0.012500
    ROOT=12 WEIGHT=    0.012500
    ROOT=13 WEIGHT=    0.012500
    ROOT=14 WEIGHT=    0.012500
    ROOT=15 WEIGHT=    0.012500
    ROOT=16 WEIGHT=    0.012500
    ROOT=17 WEIGHT=    0.012500
    ROOT=18 WEIGHT=    0.012500
    ROOT=19 WEIGHT=    0.012500
    ROOT=20 WEIGHT=    0.012500
    ROOT=21 WEIGHT=    0.012500
    ROOT=22 WEIGHT=    0.012500
    ROOT=23 WEIGHT=    0.012500
    ROOT=24 WEIGHT=    0.012500
    ROOT=25 WEIGHT=    0.012500
    ROOT=26 WEIGHT=    0.012500
    ROOT=27 WEIGHT=    0.012500
    ROOT=28 WEIGHT=    0.012500
    ROOT=29 WEIGHT=    0.012500
    ROOT=30 WEIGHT=    0.012500
    ROOT=31 WEIGHT=    0.012500
    ROOT=32 WEIGHT=    0.012500
    ROOT=33 WEIGHT=    0.012500
    ROOT=34 WEIGHT=    0.012500
    ROOT=35 WEIGHT=    0.012500
    ROOT=36 WEIGHT=    0.012500
    ROOT=37 WEIGHT=    0.012500
    ROOT=38 WEIGHT=    0.012500
    ROOT=39 WEIGHT=    0.012500

  PrintLevel                        ...    1
  N(GuessMat)                       ...       512
  MaxDim(CI)                        ...        10
  MaxIter(CI)                       ...        64
  Energy Tolerance CI               ...  1.00e-09
  Residual Tolerance CI             ...  1.00e-09
  Shift(CI)                         ...  1.00e-04

INTEGRAL-TRANSFORMATION-STEP:
  Algorithm                         ... RI-MO

ORBITAL-IMPROVEMENT-STEP:
  Algorithm                         ... SuperCI
  Default Parametrization           ... CAYLEY
  Act-Act rotations                 ... depends on algorithm used
  FreezeIE                          ... 95.00% of ||g||
  Until reaching FreezeIE rotations with active orbitals are damped. 

  Approx. Fock at                   ... 0.000000e+00 density convergence
  Level shift                       ... energy gap dependent. Minimum=1.000
  Switch step at gradient           ...  3.00e-02 
  Switch step at iteration          ...        50   
  Switch step to                    ... DIIS    

SCF-SETTINGS:
  Incremental                       ... off
  RIJCOSX approximation             ... on
  UseFinalGrid                      ... on
  RI-JK approximation               ... off
  AO integral handling              ... DIRECT
  Integral Neglect Thresh           ...  1.00e-12
  Primitive cutoff TCut             ...  1.00e-14
  Energy convergence tolerance      ...  1.00e-08
  Orbital gradient convergence      ...  1.00e-05
  Max. number of iterations         ...       100  


PROPERTIES-SETTINGS:
  Spin orbit coupling               ... true
  GTensor                           ... true

FINAL ORBITALS:
  Active   Orbitals                 ... d-orbitals 
  Internal Orbitals                 ... canonical 
  External Orbitals                 ... canonical 

------------------
CAS-SCF ITERATIONS
------------------


MACRO-ITERATION   1: 
   --- Canonicalize Internal Space
   --- Canonicalize External Space
   --- Inactive Energy E0 = -1562.29697439 Eh
CI-ITERATION   0: 
 -1575.500464950   0.000000000000 (    0.00)
 -1575.329789724   0.000000000000
 -1575.300761580   0.000000000000
 -1575.294954500   0.000000000000
 -1575.268394556   0.000000000000
 -1575.228715049   0.000000000000
 -1575.212216582   0.000000000000
 -1574.686837809   0.000000000000
 -1574.679671726   0.000000000000
 -1574.643300847   0.000000000000
   CI-PROBLEM SOLVED
   DENSITIES MADE
CI-ITERATION   0: 
 -1575.414312078   0.000000000000 (    0.00)
 -1575.410735668   0.000000000000
 -1575.407794940   0.000000000000
 -1575.396877500   0.000000000000
 -1575.395724945   0.000000000000
 -1575.356750480   0.000000000000
 -1575.351428384   0.000000000000
 -1575.328663059   0.000000000000
 -1575.286476469   0.000000000000
 -1575.263442072   0.000000000000
 -1575.256327203   0.000000000000
 -1575.252596977   0.000000000000
 -1575.240579061   0.000000000000
 -1575.238863727   0.000000000000
 -1575.224731186   0.000000000000
 -1575.221591523   0.000000000000
 -1575.217289674   0.000000000000
 -1575.210696663   0.000000000000
 -1575.208601958   0.000000000000
 -1575.186294074   0.000000000000
 -1575.185675169   0.000000000000
 -1575.164210051   0.000000000000
 -1575.157309255   0.000000000000
 -1575.151394507   0.000000000000
 -1575.125731167   0.000000000000
 -1575.070753333   0.000000000000
 -1574.883316415   0.000000000000
 -1574.868815624   0.000000000000
 -1574.847059466   0.000000000000
 -1574.678294525   0.000000000000
 -1574.668618704   0.000000000000
 -1574.656439411   0.000000000000
 -1574.651806732   0.000000000000
 -1574.635191663   0.000000000000
 -1574.613702290   0.000000000000
 -1574.310743878   0.000000000000
 -1574.300831705   0.000000000000
 -1574.244553299   0.000000000000
 -1573.853025797   0.000000000000
 -1573.331135478   0.000000000000
   CI-PROBLEM SOLVED
   DENSITIES MADE

                 <<<<<<<<<<<<<<<<<<INITIAL CI STATE CHECK>>>>>>>>>>>>>>>>>>

BLOCK  1 MULT= 4 NROOTS=10 
ROOT   0:  E=   -1575.5004649500 Eh
      0.91475 [     6]: 21112
      0.02495 [     3]: 12112
      0.02321 [     7]: 21121
      0.01851 [     0]: 11122
      0.01677 [     9]: 22111
ROOT   1:  E=   -1575.3297897240 Eh  4.644 eV  37458.9 cm**-1
      0.81922 [     1]: 11212
      0.11753 [     0]: 11122
      0.03240 [     2]: 11221
      0.02475 [     5]: 12211
      0.00345 [     3]: 12112
ROOT   2:  E=   -1575.3007615797 Eh  5.434 eV  43829.8 cm**-1
      0.62297 [     3]: 12112
      0.30834 [     0]: 11122
      0.05500 [     1]: 11212
      0.00381 [     4]: 12121
      0.00377 [     2]: 11221
      0.00364 [     5]: 12211
ROOT   3:  E=   -1575.2949545001 Eh  5.592 eV  45104.3 cm**-1
      0.52962 [     0]: 11122
      0.31255 [     3]: 12112
      0.05668 [     1]: 11212
      0.05070 [     4]: 12121
      0.03525 [     6]: 21112
      0.00624 [     7]: 21121
      0.00401 [     9]: 22111
      0.00401 [     2]: 11221
ROOT   4:  E=   -1575.2683945563 Eh  6.315 eV  50933.6 cm**-1
      0.85902 [     8]: 21211
      0.07105 [     5]: 12211
      0.05280 [     2]: 11221
      0.01065 [     9]: 22111
      0.00625 [     7]: 21121
ROOT   5:  E=   -1575.2287150495 Eh  7.395 eV  59642.2 cm**-1
      0.56778 [     9]: 22111
      0.41298 [     7]: 21121
      0.01872 [     8]: 21211
ROOT   6:  E=   -1575.2122165822 Eh  7.844 eV  63263.2 cm**-1
      0.49270 [     7]: 21121
      0.35708 [     9]: 22111
      0.10869 [     4]: 12121
      0.03974 [     6]: 21112
ROOT   7:  E=   -1574.6868378086 Eh 22.140 eV 178570.5 cm**-1
      0.48885 [     2]: 11221
      0.42083 [     5]: 12211
      0.06711 [     1]: 11212
      0.02006 [     4]: 12121
ROOT   8:  E=   -1574.6796717260 Eh 22.335 eV 180143.3 cm**-1
      0.45811 [     5]: 12211
      0.41316 [     2]: 11221
      0.12110 [     8]: 21211
      0.00346 [     7]: 21121
ROOT   9:  E=   -1574.6433008467 Eh 23.325 eV 188125.8 cm**-1
      0.81103 [     4]: 12121
      0.05493 [     7]: 21121
      0.04230 [     9]: 22111
      0.03313 [     3]: 12112
      0.02518 [     0]: 11122
      0.02042 [     5]: 12211
      0.00743 [     6]: 21112
      0.00359 [     2]: 11221

BLOCK  2 MULT= 2 NROOTS=40 
ROOT   0:  E=   -1575.4143120778 Eh
      0.83855 [    18]: 21112
      0.02991 [     9]: 12112
      0.02724 [    17]: 21022
      0.02466 [     5]: 11122
      0.01980 [    15]: 20212
      0.01733 [    19]: 21121
      0.01350 [    26]: 22111
      0.01269 [    23]: 22012
      0.00541 [    20]: 21202
      0.00298 [    25]: 22102
ROOT   1:  E=   -1575.4107356683 Eh  0.097 eV    784.9 cm**-1
      0.31905 [    23]: 22012
      0.20189 [    15]: 20212
      0.19994 [    17]: 21022
      0.13323 [    20]: 21202
      0.05670 [    18]: 21112
      0.01978 [    24]: 22021
      0.01747 [     6]: 11212
      0.01398 [    14]: 20122
      0.00762 [     4]: 10222
      0.00623 [    21]: 21211
      0.00558 [    11]: 12202
      0.00532 [    25]: 22102
      0.00447 [    16]: 20221
ROOT   2:  E=   -1575.4077949401 Eh  0.177 eV   1430.3 cm**-1
      0.30199 [    17]: 21022
      0.25208 [    20]: 21202
      0.19854 [    23]: 22012
      0.16382 [    15]: 20212
      0.02062 [    18]: 21112
      0.01329 [     6]: 11212
      0.01285 [    11]: 12202
      0.01117 [     8]: 12022
      0.00932 [    21]: 21211
      0.00644 [     4]: 10222
      0.00381 [    28]: 22201
      0.00342 [    16]: 20221
ROOT   3:  E=   -1575.3968775004 Eh  0.474 eV   3826.4 cm**-1
      0.35906 [    14]: 20122
      0.33459 [    25]: 22102
      0.23096 [    18]: 21112
      0.02154 [    19]: 21121
      0.02057 [     9]: 12112
      0.01382 [    23]: 22012
      0.00378 [    15]: 20212
      0.00312 [    26]: 22111
      0.00278 [     4]: 10222
ROOT   4:  E=   -1575.3957249451 Eh  0.506 eV   4079.4 cm**-1
      0.70022 [    18]: 21112
      0.12565 [    25]: 22102
      0.09979 [    14]: 20122
      0.02319 [     5]: 11122
      0.02060 [    26]: 22111
      0.01148 [    17]: 21022
      0.00579 [    20]: 21202
      0.00353 [    15]: 20212
      0.00287 [     6]: 11212
      0.00278 [     9]: 12112
      0.00268 [    19]: 21121
ROOT   5:  E=   -1575.3567504796 Eh  1.566 eV  12633.3 cm**-1
      0.30987 [    15]: 20212
      0.23490 [    23]: 22012
      0.20609 [    20]: 21202
      0.14831 [    17]: 21022
      0.02539 [     6]: 11212
      0.01408 [    24]: 22021
      0.01207 [     5]: 11122
      0.01174 [    11]: 12202
      0.01057 [     4]: 10222
      0.00864 [    16]: 20221
      0.00641 [    21]: 21211
      0.00521 [    28]: 22201
      0.00300 [    18]: 21112
ROOT   6:  E=   -1575.3514283837 Eh  1.711 eV  13801.4 cm**-1
      0.28274 [    20]: 21202
      0.26131 [    17]: 21022
      0.17806 [    23]: 22012
      0.17500 [    15]: 20212
      0.02230 [     6]: 11212
      0.01800 [    25]: 22102
      0.01666 [    11]: 12202
      0.00973 [     4]: 10222
      0.00922 [    18]: 21112
      0.00825 [     9]: 12112
      0.00424 [     8]: 12022
      0.00328 [    28]: 22201
ROOT   7:  E=   -1575.3286630592 Eh  2.331 eV  18797.8 cm**-1
      0.47323 [    14]: 20122
      0.45800 [    25]: 22102
      0.01052 [    11]: 12202
      0.00972 [     1]: 02122
      0.00889 [    15]: 20212
      0.00824 [     4]: 10222
      0.00707 [     6]: 11212
      0.00696 [    17]: 21022
      0.00338 [    26]: 22111
      0.00287 [    20]: 21202
ROOT   8:  E=   -1575.2864764691 Eh  3.479 eV  28056.7 cm**-1
      0.69583 [     6]: 11212
      0.07112 [     2]: 02212
      0.05650 [     5]: 11122
      0.05350 [     0]: 01222
      0.02445 [     7]: 11221
      0.01933 [    12]: 12211
      0.01502 [    15]: 20212
      0.01020 [     4]: 10222
      0.00974 [    11]: 12202
      0.00766 [     3]: 02221
      0.00726 [    25]: 22102
      0.00702 [    20]: 21202
      0.00500 [    18]: 21112
      0.00479 [    21]: 21211
      0.00410 [     9]: 12112
      0.00260 [    10]: 12121
ROOT   9:  E=   -1575.2634420721 Eh  4.105 eV  33112.1 cm**-1
      0.51215 [     9]: 12112
      0.23166 [     5]: 11122
      0.09828 [    21]: 21211
      0.04334 [    10]: 12121
      0.03813 [     6]: 11212
      0.00993 [    18]: 21112
      0.00937 [    19]: 21121
      0.00856 [     8]: 12022
      0.00653 [    22]: 21220
      0.00579 [    12]: 12211
      0.00504 [    14]: 20122
      0.00499 [    11]: 12202
      0.00473 [    29]: 22210
      0.00466 [    25]: 22102
      0.00340 [    17]: 21022
      0.00290 [    26]: 22111
ROOT  10:  E=   -1575.2563272035 Eh  4.299 eV  34673.7 cm**-1
      0.65450 [    21]: 21211
      0.05755 [     9]: 12112
      0.05109 [     5]: 11122
      0.04324 [    12]: 12211
      0.04253 [    22]: 21220
      0.03873 [     7]: 11221
      0.03246 [    29]: 22210
      0.02540 [     6]: 11212
      0.01075 [    26]: 22111
      0.00930 [    13]: 12220
      0.00642 [    17]: 21022
      0.00634 [    10]: 12121
      0.00345 [    19]: 21121
      0.00272 [    28]: 22201
ROOT  11:  E=   -1575.2525969770 Eh  4.400 eV  35492.4 cm**-1
      0.52313 [     5]: 11122
      0.28790 [     9]: 12112
      0.06389 [     1]: 02122
      0.05025 [     6]: 11212
      0.02583 [    11]: 12202
      0.01103 [     8]: 12022
      0.00866 [    18]: 21112
      0.00791 [    23]: 22012
      0.00374 [    15]: 20212
      0.00353 [     4]: 10222
      0.00336 [     7]: 11221
      0.00331 [    12]: 12211
ROOT  12:  E=   -1575.2405790615 Eh  4.728 eV  38130.0 cm**-1
      0.22498 [     9]: 12112
      0.19662 [     4]: 10222
      0.18251 [     5]: 11122
      0.17015 [    11]: 12202
      0.07625 [     6]: 11212
      0.03110 [     1]: 02122
      0.02704 [     2]: 02212
      0.02622 [     7]: 11221
      0.01374 [     8]: 12022
      0.00953 [    15]: 20212
      0.00905 [    14]: 20122
      0.00665 [    25]: 22102
      0.00563 [     0]: 01222
      0.00450 [    21]: 21211
      0.00276 [    20]: 21202
ROOT  13:  E=   -1575.2388637268 Eh  4.774 eV  38506.5 cm**-1
      0.43419 [     6]: 11212
      0.15054 [     5]: 11122
      0.12206 [     4]: 10222
      0.07765 [     9]: 12112
      0.07374 [     8]: 12022
      0.04512 [     0]: 01222
      0.02264 [    12]: 12211
      0.01281 [    18]: 21112
      0.00960 [    20]: 21202
      0.00825 [    10]: 12121
      0.00726 [     2]: 02212
      0.00701 [    21]: 21211
      0.00657 [    26]: 22111
      0.00471 [    11]: 12202
      0.00442 [    17]: 21022
      0.00382 [     7]: 11221
      0.00334 [    19]: 21121
ROOT  14:  E=   -1575.2247311864 Eh  5.159 eV  41608.2 cm**-1
      0.22754 [     8]: 12022
      0.19518 [     9]: 12112
      0.15969 [     6]: 11212
      0.12074 [     5]: 11122
      0.11739 [    11]: 12202
      0.03655 [    26]: 22111
      0.03548 [     4]: 10222
      0.03536 [    12]: 12211
      0.01347 [    20]: 21202
      0.01252 [     0]: 01222
      0.00975 [    19]: 21121
      0.00642 [    17]: 21022
      0.00578 [    10]: 12121
      0.00437 [    18]: 21112
      0.00405 [     7]: 11221
      0.00329 [    21]: 21211
ROOT  15:  E=   -1575.2215915233 Eh  5.244 eV  42297.3 cm**-1
      0.28978 [    19]: 21121
      0.26295 [    26]: 22111
      0.18649 [     5]: 11122
      0.06508 [    27]: 22120
      0.05124 [     6]: 11212
      0.03619 [    11]: 12202
      0.01902 [     1]: 02122
      0.01806 [     9]: 12112
      0.01753 [    18]: 21112
      0.01027 [     2]: 02212
      0.00951 [    21]: 21211
      0.00706 [     7]: 11221
      0.00700 [     4]: 10222
      0.00559 [     8]: 12022
      0.00444 [    25]: 22102
ROOT  16:  E=   -1575.2172896745 Eh  5.361 eV  43241.4 cm**-1
      0.38903 [     8]: 12022
      0.22477 [     9]: 12112
      0.11074 [    26]: 22111
      0.09594 [     4]: 10222
      0.06274 [    11]: 12202
      0.04775 [     5]: 11122
      0.01423 [    19]: 21121
      0.00875 [    10]: 12121
      0.00874 [    20]: 21202
      0.00707 [    18]: 21112
      0.00695 [    15]: 20212
      0.00582 [    21]: 21211
      0.00378 [     7]: 11221
      0.00333 [    27]: 22120
      0.00319 [    12]: 12211
      0.00263 [     0]: 01222
ROOT  17:  E=   -1575.2106966629 Eh  5.541 eV  44688.4 cm**-1
      0.21715 [     5]: 11122
      0.15125 [    26]: 22111
      0.13700 [    19]: 21121
      0.13420 [     9]: 12112
      0.08023 [     4]: 10222
      0.07813 [     6]: 11212
      0.07663 [    11]: 12202
      0.03551 [     1]: 02122
      0.02535 [    27]: 22120
      0.01553 [     2]: 02212
      0.01468 [     7]: 11221
      0.00908 [    15]: 20212
      0.00640 [    21]: 21211
      0.00330 [    14]: 20122
      0.00320 [    25]: 22102
      0.00302 [    16]: 20221
ROOT  18:  E=   -1575.2086019580 Eh  5.598 eV  45148.2 cm**-1
      0.41557 [    19]: 21121
      0.30472 [    26]: 22111
      0.14105 [    10]: 12121
      0.04723 [     9]: 12112
      0.02333 [     5]: 11122
      0.01649 [     4]: 10222
      0.01593 [    18]: 21112
      0.01104 [    14]: 20122
      0.00985 [    25]: 22102
      0.00488 [     8]: 12022
      0.00270 [     7]: 11221
ROOT  19:  E=   -1575.1862940738 Eh  6.205 eV  50044.2 cm**-1
      0.80079 [    21]: 21211
      0.05170 [    12]: 12211
      0.03651 [     7]: 11221
      0.02505 [    22]: 21220
      0.02065 [    29]: 22210
      0.01482 [    26]: 22111
      0.01285 [    28]: 22201
      0.00998 [    24]: 22021
      0.00899 [    16]: 20221
      0.00584 [     3]: 02221
      0.00532 [    20]: 21202
      0.00388 [    15]: 20212
ROOT  20:  E=   -1575.1856751685 Eh  6.222 eV  50180.0 cm**-1
      0.42829 [    28]: 22201
      0.38656 [    16]: 20221
      0.06282 [     7]: 11221
      0.05060 [    12]: 12211
      0.02314 [    29]: 22210
      0.01713 [    22]: 21220
      0.00665 [    19]: 21121
      0.00586 [    15]: 20212
      0.00528 [    13]: 12220
      0.00447 [    20]: 21202
      0.00269 [    26]: 22111
ROOT  21:  E=   -1575.1642100509 Eh  6.806 eV  54891.1 cm**-1
      0.53100 [    26]: 22111
      0.38139 [    19]: 21121
      0.04938 [    27]: 22120
      0.00792 [    18]: 21112
      0.00726 [    16]: 20221
      0.00702 [    21]: 21211
      0.00474 [    24]: 22021
      0.00274 [    28]: 22201
ROOT  22:  E=   -1575.1573092546 Eh  6.993 eV  56405.6 cm**-1
      0.45571 [    19]: 21121
      0.33886 [    26]: 22111
      0.11636 [    10]: 12121
      0.02533 [    18]: 21112
      0.02282 [    24]: 22021
      0.01294 [    21]: 21211
      0.01053 [    16]: 20221
      0.00377 [    14]: 20122
      0.00353 [    25]: 22102
      0.00298 [    28]: 22201
ROOT  23:  E=   -1575.1513945071 Eh  7.154 eV  57703.7 cm**-1
      0.50354 [    24]: 22021
      0.17115 [    16]: 20221
      0.16388 [    28]: 22201
      0.03699 [    19]: 21121
      0.03572 [     7]: 11221
      0.02661 [    12]: 12211
      0.00994 [    23]: 22012
      0.00815 [    26]: 22111
      0.00758 [    17]: 21022
      0.00726 [    21]: 21211
      0.00602 [    15]: 20212
      0.00571 [    29]: 22210
      0.00462 [    20]: 21202
      0.00451 [    22]: 21220
      0.00396 [     3]: 02221
ROOT  24:  E=   -1575.1257311674 Eh  7.853 eV  63336.2 cm**-1
      0.32113 [    11]: 12202
      0.28026 [     4]: 10222
      0.24183 [     8]: 12022
      0.03308 [    12]: 12211
      0.02222 [     7]: 11221
      0.01916 [    20]: 21202
      0.01710 [     0]: 01222
      0.01290 [     9]: 12112
      0.01279 [     2]: 02212
      0.01238 [    15]: 20212
      0.00580 [     6]: 11212
      0.00347 [     5]: 11122
      0.00298 [    19]: 21121
      0.00296 [    10]: 12121
      0.00276 [    23]: 22012
      0.00262 [    17]: 21022
ROOT  25:  E=   -1575.0707533327 Eh  9.349 eV  75402.4 cm**-1
      0.41864 [    24]: 22021
      0.23082 [    28]: 22201
      0.22998 [    16]: 20221
      0.03751 [     7]: 11221
      0.02792 [    12]: 12211
      0.01164 [    29]: 22210
      0.01007 [    23]: 22012
      0.00849 [    22]: 21220
      0.00731 [    17]: 21022
      0.00554 [    15]: 20212
      0.00392 [    20]: 21202
ROOT  26:  E=   -1574.8833164155 Eh 14.449 eV 116540.1 cm**-1
      0.42209 [     2]: 02212
      0.41834 [     0]: 01222
      0.05011 [     1]: 02122
      0.04911 [     6]: 11212
      0.02686 [     4]: 10222
      0.02098 [    11]: 12202
      0.00569 [     9]: 12112
      0.00370 [     5]: 11122
ROOT  27:  E=   -1574.8688156237 Eh 14.844 eV 119722.6 cm**-1
      0.37949 [     0]: 01222
      0.19290 [     1]: 02122
      0.18634 [     2]: 02212
      0.09028 [     6]: 11212
      0.03844 [     3]: 02221
      0.03343 [     5]: 11122
      0.02469 [     4]: 10222
      0.01388 [     9]: 12112
      0.00956 [    11]: 12202
      0.00691 [    15]: 20212
      0.00611 [     7]: 11221
      0.00570 [    20]: 21202
      0.00439 [    12]: 12211
ROOT  28:  E=   -1574.8470594656 Eh 15.436 eV 124497.6 cm**-1
      0.59056 [     1]: 02122
      0.19631 [     2]: 02212
      0.05195 [     5]: 11122
      0.04604 [     9]: 12112
      0.03502 [     6]: 11212
      0.02947 [     0]: 01222
      0.02128 [     3]: 02221
      0.00709 [    11]: 12202
      0.00363 [    14]: 20122
      0.00326 [    18]: 21112
      0.00310 [    25]: 22102
      0.00283 [     7]: 11221
ROOT  29:  E=   -1574.6782945253 Eh 20.028 eV 161537.2 cm**-1
      0.49351 [     7]: 11221
      0.40414 [    12]: 12211
      0.02894 [    11]: 12202
      0.02539 [     4]: 10222
      0.01960 [    10]: 12121
      0.00958 [     6]: 11212
      0.00815 [     3]: 02221
      0.00350 [    21]: 21211
ROOT  30:  E=   -1574.6686187039 Eh 20.291 eV 163660.8 cm**-1
      0.34325 [    12]: 12211
      0.30590 [     7]: 11221
      0.12471 [    13]: 12220
      0.08286 [    21]: 21211
      0.04892 [     6]: 11212
      0.02922 [    11]: 12202
      0.01821 [     4]: 10222
      0.01060 [    22]: 21220
      0.00808 [    20]: 21202
      0.00791 [    29]: 22210
      0.00606 [    15]: 20212
      0.00450 [    10]: 12121
      0.00346 [    19]: 21121
      0.00292 [    16]: 20221
      0.00257 [    28]: 22201
ROOT  31:  E=   -1574.6564394110 Eh 20.623 eV 166333.8 cm**-1
      0.50343 [    12]: 12211
      0.35849 [     7]: 11221
      0.05290 [    28]: 22201
      0.04912 [    16]: 20221
      0.01565 [    21]: 21211
      0.00714 [    13]: 12220
      0.00327 [    10]: 12121
      0.00257 [     6]: 11212
ROOT  32:  E=   -1574.6518067319 Eh 20.749 eV 167350.6 cm**-1
      0.31063 [     7]: 11221
      0.21900 [    12]: 12211
      0.20729 [     3]: 02221
      0.08992 [    21]: 21211
      0.05964 [    16]: 20221
      0.03740 [     6]: 11212
      0.03162 [    28]: 22201
      0.00871 [    10]: 12121
      0.00823 [    15]: 20212
      0.00738 [     2]: 02212
      0.00615 [    20]: 21202
      0.00529 [     0]: 01222
      0.00285 [    19]: 21121
ROOT  33:  E=   -1574.6351916634 Eh 21.201 eV 170997.2 cm**-1
      0.80605 [    10]: 12121
      0.05482 [    19]: 21121
      0.04247 [    26]: 22111
      0.03405 [     9]: 12112
      0.02352 [     5]: 11122
      0.01980 [    12]: 12211
      0.00490 [     7]: 11221
      0.00375 [    18]: 21112
      0.00283 [    13]: 12220
ROOT  34:  E=   -1574.6137022899 Eh 21.786 eV 175713.5 cm**-1
      0.81062 [    10]: 12121
      0.05765 [    19]: 21121
      0.04461 [    26]: 22111
      0.03373 [     9]: 12112
      0.02521 [     5]: 11122
      0.01079 [     7]: 11221
      0.00411 [    18]: 21112
ROOT  35:  E=   -1574.3107438783 Eh 30.030 eV 242205.2 cm**-1
      0.53414 [    29]: 22210
      0.38139 [    22]: 21220
      0.03674 [    21]: 21211
      0.02559 [    28]: 22201
      0.01314 [    16]: 20221
      0.00766 [    27]: 22120
ROOT  36:  E=   -1574.3008317050 Eh 30.299 eV 244380.7 cm**-1
      0.41730 [    22]: 21220
      0.30950 [    29]: 22210
      0.11544 [    13]: 12220
      0.09323 [    21]: 21211
      0.01508 [    28]: 22201
      0.01463 [    16]: 20221
      0.01047 [    12]: 12211
      0.00797 [    27]: 22120
      0.00750 [     7]: 11221
      0.00317 [    20]: 21202
ROOT  37:  E=   -1574.2445532989 Eh 31.831 eV 256732.4 cm**-1
      0.83433 [    27]: 22120
      0.08086 [    26]: 22111
      0.05932 [    19]: 21121
      0.01643 [    22]: 21220
      0.00288 [    18]: 21112
ROOT  38:  E=   -1573.8530257969 Eh 42.485 eV 342662.7 cm**-1
      0.70036 [     3]: 02221
      0.11505 [     7]: 11221
      0.08554 [    12]: 12211
      0.03421 [     2]: 02212
      0.02466 [     0]: 01222
      0.01300 [     6]: 11212
      0.00777 [    21]: 21211
      0.00635 [    16]: 20221
      0.00371 [    28]: 22201
ROOT  39:  E=   -1573.3311354780 Eh 56.686 eV 457204.4 cm**-1
      0.72836 [    13]: 12220
      0.07577 [    12]: 12211
      0.06392 [    22]: 21220
      0.05459 [     7]: 11221
      0.04753 [    29]: 22210
      0.01526 [    21]: 21211
      0.00288 [     6]: 11212
      0.00251 [    28]: 22201

                 <<<<<<<<<<<<<<<<<<INITIAL CI STATE CHECK>>>>>>>>>>>>>>>>>>

   E(CAS)= -1575.048110193 Eh DE=    0.000000e+00
   --- Energy gap subspaces: Ext-Act = 0.824   Act-Int = 0.052
   --- current l-shift: Up(Ext-Act) = 1.18   Dn(Act-Int) = 1.95
   N(occ)=  1.40000 1.40000 1.40000 1.40000 1.40000
   ||g|| =     1.219214e+02 Max(G)=    1.102085e+02 Rot=201,0
   --- Option=FreezeIE: ||g|| =    121.916324553 
                              = 100.00% 
                        Damping (0.029) elements outside Int-Ext
   --- Orbital Update [   SuperCI]
   SUPERCI-ITER   0: DE=    -0.261614459 <r|r>=      0.026033858
   SUPERCI-ITER   1: DE=    -0.006083957 <r|r>=      0.203587958
   SUPERCI-ITER   2: DE=    -0.000444485 <r|r>=      0.043094945
   SUPERCI-ITER   3: DE=    -0.000104901 <r|r>=      0.000291954
   SUPERCI-ITER   4: DE=    -0.000006383 <r|r>=      0.000038233
   SUPERCI-ITER   5: DE=    -0.000000797 <r|r>=      0.000002631
   SUPERCI-ITER   6: DE=    -0.000000133 <r|r>=      0.000002109
   SUPERCI-ITER   7: DE=    -0.000000020 <r|r>=      0.000000074
   SUPERCI-ITER   8: DE=    -0.000000003 <r|r>=      0.000000002
   SUPERCI-ITER   9: DE=    -0.000000000 
   <Psi(SX)|Psi(SX)>=      1.000000000 DE(SX)=-0.268255138
   Largest coefficient in the normalized |SX> wavefunction= 0.048509757
   --- Forming Natural Orbitals

MACRO-ITERATION   2: 
   --- Canonicalize Internal Space
   --- Canonicalize External Space
   --- Inactive Energy E0 = -1562.66529261 Eh
CI-ITERATION   0: 
 -1576.337528779   0.000000000000 (    0.00)
 -1576.249643011   0.000000000000
 -1576.246072509   0.000000000000
 -1576.228546795   0.000000000000
 -1576.221957293   0.000000000000
 -1576.218239190   0.000000000000
 -1576.196682031   0.000000000000
 -1575.767177111   0.000000000000
 -1575.759547614   0.000000000000
 -1575.734869129   0.000000000000
   CI-PROBLEM SOLVED
   DENSITIES MADE
CI-ITERATION   0: 
 -1576.267363765   0.000000000000 (    0.00)
 -1576.254436224   0.000000000000
 -1576.254173738   0.000000000000
 -1576.251740816   0.000000000000
 -1576.248915461   0.000000000000
 -1576.238445267   0.000000000000
 -1576.222584122   0.000000000000
 -1576.213560896   0.000000000000
 -1576.199164563   0.000000000000
 -1576.192568405   0.000000000000
 -1576.182786239   0.000000000000
 -1576.179010662   0.000000000000
 -1576.175502390   0.000000000000
 -1576.170519255   0.000000000000
 -1576.161303935   0.000000000000
 -1576.159561223   0.000000000000
 -1576.151216665   0.000000000000
 -1576.147331675   0.000000000000
 -1576.144239608   0.000000000000
 -1576.143302499   0.000000000000
 -1576.141836120   0.000000000000
 -1576.136782034   0.000000000000
 -1576.128968849   0.000000000000
 -1576.100593208   0.000000000000
 -1576.054881091   0.000000000000
 -1576.044899943   0.000000000000
 -1575.902723120   0.000000000000
 -1575.892115605   0.000000000000
 -1575.870201194   0.000000000000
 -1575.758502974   0.000000000000
 -1575.747361429   0.000000000000
 -1575.736027293   0.000000000000
 -1575.731985564   0.000000000000
 -1575.726519325   0.000000000000
 -1575.705787696   0.000000000000
 -1575.450432547   0.000000000000
 -1575.441556459   0.000000000000
 -1575.397301375   0.000000000000
 -1575.036955934   0.000000000000
 -1574.575595245   0.000000000000
   CI-PROBLEM SOLVED
   DENSITIES MADE
   E(CAS)= -1576.029747603 Eh DE=   -9.816374e-01
   --- Energy gap subspaces: Ext-Act = 0.267   Act-Int = -0.015
   --- current l-shift: Up(Ext-Act) = 1.23   Dn(Act-Int) = 1.52
   N(occ)=  1.40000 1.40000 1.40000 1.40000 1.40000
   ||g|| =     3.654370e+01 Max(G)=    3.307269e+01 Rot=201,0
   --- Option=FreezeIE: ||g|| =     36.533437522 
                              = 99.97% 
                        Damping (0.029) elements outside Int-Ext
   --- Orbital Update [   SuperCI]
   SUPERCI-ITER   0: DE=    -0.025836926 <r|r>=      0.000017875
   SUPERCI-ITER   1: DE=    -0.000017889 <r|r>=      0.000967626
   SUPERCI-ITER   2: DE=    -0.000000672 <r|r>=      0.000001788
   SUPERCI-ITER   3: DE=    -0.000000022 <r|r>=      0.000000006
   SUPERCI-ITER   4: DE=    -0.000000000 
   <Psi(SX)|Psi(SX)>=      1.000000000 DE(SX)=-0.025855509
   Largest coefficient in the normalized |SX> wavefunction= 0.022552624
   --- Forming Natural Orbitals

MACRO-ITERATION   3: 
   --- Canonicalize Internal Space
   --- Canonicalize External Space
   --- Inactive Energy E0 = -1562.64747146 Eh
CI-ITERATION   0: 
 -1576.408190781   0.000000000000 (    0.00)
 -1576.342370168   0.000000000000
 -1576.334558181   0.000000000000
 -1576.317381005   0.000000000000
 -1576.314403161   0.000000000000
 -1576.310295008   0.000000000000
 -1576.289926363   0.000000000000
 -1575.884587488   0.000000000000
 -1575.876872193   0.000000000000
 -1575.854905226   0.000000000000
   CI-PROBLEM SOLVED
   DENSITIES MADE
CI-ITERATION   0: 
 -1576.355976179   0.000000000000 (    0.00)
 -1576.337404476   0.000000000000
 -1576.332971441   0.000000000000
 -1576.327920596   0.000000000000
 -1576.324200682   0.000000000000
 -1576.316939104   0.000000000000
 -1576.307161448   0.000000000000
 -1576.293788539   0.000000000000
 -1576.289152096   0.000000000000
 -1576.276315749   0.000000000000
 -1576.271128304   0.000000000000
 -1576.267640284   0.000000000000
 -1576.264354301   0.000000000000
 -1576.260971820   0.000000000000
 -1576.247094858   0.000000000000
 -1576.243537107   0.000000000000
 -1576.236121591   0.000000000000
 -1576.235505547   0.000000000000
 -1576.233358914   0.000000000000
 -1576.229042127   0.000000000000
 -1576.226151384   0.000000000000
 -1576.220251053   0.000000000000
 -1576.207009071   0.000000000000
 -1576.174861858   0.000000000000
 -1576.150861594   0.000000000000
 -1576.128525045   0.000000000000
 -1576.007664309   0.000000000000
 -1575.998128087   0.000000000000
 -1575.974992720   0.000000000000
 -1575.875869694   0.000000000000
 -1575.864349682   0.000000000000
 -1575.853098288   0.000000000000
 -1575.849264472   0.000000000000
 -1575.846374868   0.000000000000
 -1575.826001614   0.000000000000
 -1575.578865653   0.000000000000
 -1575.570334830   0.000000000000
 -1575.529224247   0.000000000000
 -1575.177186571   0.000000000000
 -1574.727197012   0.000000000000
   CI-PROBLEM SOLVED
   DENSITIES MADE
   E(CAS)= -1576.127134444 Eh DE=   -9.738684e-02
   --- Energy gap subspaces: Ext-Act = 0.288   Act-Int = -0.002
   --- current l-shift: Up(Ext-Act) = 1.04   Dn(Act-Int) = 1.34
   N(occ)=  1.40000 1.40000 1.40000 1.40000 1.40000
   ||g|| =     1.085319e+01 Max(G)=    9.807326e+00 Rot=201,0
   --- Option=FreezeIE: ||g|| =     10.820763246 
                              = 99.70% 
                        Damping (0.029) elements outside Int-Ext
   --- Orbital Update [   SuperCI]
   SUPERCI-ITER   0: DE=    -0.002758973 <r|r>=      0.000002511
   SUPERCI-ITER   1: DE=    -0.000003861 <r|r>=      0.000010622
   SUPERCI-ITER   2: DE=    -0.000000078 <r|r>=      0.000009953
   SUPERCI-ITER   3: DE=    -0.000000011 <r|r>=      0.000000002
   SUPERCI-ITER   4: DE=    -0.000000000 
   <Psi(SX)|Psi(SX)>=      1.000000000 DE(SX)=-0.002762924
   Largest coefficient in the normalized |SX> wavefunction= 0.011107479
   --- Forming Natural Orbitals

MACRO-ITERATION   4: 
   --- Canonicalize Internal Space
   --- Canonicalize External Space
   --- Inactive Energy E0 = -1562.57531286 Eh
CI-ITERATION   0: 
 -1576.413662407   0.000000000000 (    0.00)
 -1576.353368928   0.000000000000
 -1576.343633037   0.000000000000
 -1576.329264984   0.000000000000
 -1576.323903775   0.000000000000
 -1576.320143839   0.000000000000
 -1576.300161571   0.000000000000
 -1575.910010687   0.000000000000
 -1575.901954446   0.000000000000
 -1575.881589482   0.000000000000
   CI-PROBLEM SOLVED
   DENSITIES MADE
CI-ITERATION   0: 
 -1576.365959621   0.000000000000 (    0.00)
 -1576.347345133   0.000000000000
 -1576.341714083   0.000000000000
 -1576.334046637   0.000000000000
 -1576.330237624   0.000000000000
 -1576.324114680   0.000000000000
 -1576.314904918   0.000000000000
 -1576.300598709   0.000000000000
 -1576.298272733   0.000000000000
 -1576.285415668   0.000000000000
 -1576.281138164   0.000000000000
 -1576.277983729   0.000000000000
 -1576.273762084   0.000000000000
 -1576.271275214   0.000000000000
 -1576.256072414   0.000000000000
 -1576.251991603   0.000000000000
 -1576.245992099   0.000000000000
 -1576.244195000   0.000000000000
 -1576.242646637   0.000000000000
 -1576.237010451   0.000000000000
 -1576.234334736   0.000000000000
 -1576.227485601   0.000000000000
 -1576.213372528   0.000000000000
 -1576.181452546   0.000000000000
 -1576.161951469   0.000000000000
 -1576.136469138   0.000000000000
 -1576.030981206   0.000000000000
 -1576.022011745   0.000000000000
 -1575.997092417   0.000000000000
 -1575.901394802   0.000000000000
 -1575.889427859   0.000000000000
 -1575.877515851   0.000000000000
 -1575.873987056   0.000000000000
 -1575.872931380   0.000000000000
 -1575.852302665   0.000000000000
 -1575.597471839   0.000000000000
 -1575.589048143   0.000000000000
 -1575.549191797   0.000000000000
 -1575.227581128   0.000000000000
 -1574.770175387   0.000000000000
   CI-PROBLEM SOLVED
   DENSITIES MADE
   E(CAS)= -1576.141770364 Eh DE=   -1.463592e-02
   --- Energy gap subspaces: Ext-Act = 0.299   Act-Int = -0.014
   --- current l-shift: Up(Ext-Act) = 0.70   Dn(Act-Int) = 1.01
   N(occ)=  1.40000 1.40000 1.40000 1.40000 1.40000
   ||g|| =     3.304205e+00 Max(G)=    2.901668e+00 Rot=201,0
   --- Option=FreezeIE: ||g|| =      3.200217246 
                              = 96.85% 
                        Damping (0.029) elements outside Int-Ext
   --- Orbital Update [   SuperCI]
   SUPERCI-ITER   0: DE=    -0.000384066 <r|r>=      0.000000522
   SUPERCI-ITER   1: DE=    -0.000000798 <r|r>=      0.000001555
   Warning: Orthogonalization failed (-7e-17)! Terminating Iterations.
   Warning: Super-CI convergence failure - keeping first order |SX> wavefunction
   <Psi(SX)|Psi(SX)>=      1.000000000 DE(SX)=-0.000384864
   Largest coefficient in the normalized |SX> wavefunction= 0.005244108
   --- Forming Natural Orbitals

MACRO-ITERATION   5: 
   --- Canonicalize Internal Space
   --- Canonicalize External Space
   --- Inactive Energy E0 = -1562.57426063 Eh
CI-ITERATION   0: 
 -1576.415218888   0.000000000000 (    0.00)
 -1576.355604781   0.000000000000
 -1576.345471363   0.000000000000
 -1576.331780951   0.000000000000
 -1576.325815308   0.000000000000
 -1576.322079018   0.000000000000
 -1576.302386220   0.000000000000
 -1575.914751211   0.000000000000
 -1575.906663035   0.000000000000
 -1575.886501981   0.000000000000
   CI-PROBLEM SOLVED
   DENSITIES MADE
CI-ITERATION   0: 
 -1576.368088330   0.000000000000 (    0.00)
 -1576.349613393   0.000000000000
 -1576.343849261   0.000000000000
 -1576.335860995   0.000000000000
 -1576.331932615   0.000000000000
 -1576.326238862   0.000000000000
 -1576.316715730   0.000000000000
 -1576.302162470   0.000000000000
 -1576.300299938   0.000000000000
 -1576.287464385   0.000000000000
 -1576.283302855   0.000000000000
 -1576.280287341   0.000000000000
 -1576.275855927   0.000000000000
 -1576.273494828   0.000000000000
 -1576.258056803   0.000000000000
 -1576.253823765   0.000000000000
 -1576.248304926   0.000000000000
 -1576.246289933   0.000000000000
 -1576.244787720   0.000000000000
 -1576.238908322   0.000000000000
 -1576.236215481   0.000000000000
 -1576.229184195   0.000000000000
 -1576.214881669   0.000000000000
 -1576.183278262   0.000000000000
 -1576.164453378   0.000000000000
 -1576.138169905   0.000000000000
 -1576.035057260   0.000000000000
 -1576.026220347   0.000000000000
 -1576.000869039   0.000000000000
 -1575.906152428   0.000000000000
 -1575.894150046   0.000000000000
 -1575.882084043   0.000000000000
 -1575.878622795   0.000000000000
 -1575.877801373   0.000000000000
 -1575.857204574   0.000000000000
 -1575.601380584   0.000000000000
 -1575.592983411   0.000000000000
 -1575.553264828   0.000000000000
 -1575.236752603   0.000000000000
 -1574.778530151   0.000000000000
   CI-PROBLEM SOLVED
   DENSITIES MADE
   E(CAS)= -1576.144721072 Eh DE=   -2.950708e-03
   --- Energy gap subspaces: Ext-Act = 0.301   Act-Int = -0.006
   --- current l-shift: Up(Ext-Act) = 0.70   Dn(Act-Int) = 1.01
   N(occ)=  1.40000 1.40000 1.40000 1.40000 1.40000
   ||g|| =     1.250798e+00 Max(G)=    8.578332e-01 Rot=201,0
   --- Orbital Update [   SuperCI]
   SUPERCI-ITER   0: DE=    -0.013151104 <r|r>=      0.000063991
   SUPERCI-ITER   1: DE=    -0.000020217 <r|r>=      0.000010968
   SUPERCI-ITER   2: DE=    -0.000001997 <r|r>=      0.000000061
   SUPERCI-ITER   3: DE=    -0.000000032 <r|r>=      0.000000001
   <Psi(SX)|Psi(SX)>=      1.000000000 DE(SX)=-0.013173351
   Largest coefficient in the normalized |SX> wavefunction= 0.072903365
   --- Forming Natural Orbitals

MACRO-ITERATION   6: 
   --- Canonicalize Internal Space
   --- Canonicalize External Space
   --- Inactive Energy E0 = -1562.23185626 Eh
CI-ITERATION   0: 
 -1576.400883012   0.000000000000 (    0.00)
 -1576.370378883   0.000000000000
 -1576.355245661   0.000000000000
 -1576.340721909   0.000000000000
 -1576.336146827   0.000000000000
 -1576.314476770   0.000000000000
 -1576.305295090   0.000000000000
 -1576.021585730   0.000000000000
 -1576.013261411   0.000000000000
 -1575.996994013   0.000000000000
   CI-PROBLEM SOLVED
   DENSITIES MADE
CI-ITERATION   0: 
 -1576.378703164   0.000000000000 (    0.00)
 -1576.365769210   0.000000000000
 -1576.357087257   0.000000000000
 -1576.333317831   0.000000000000
 -1576.329228653   0.000000000000
 -1576.324194766   0.000000000000
 -1576.311206645   0.000000000000
 -1576.300878878   0.000000000000
 -1576.299859941   0.000000000000
 -1576.299214319   0.000000000000
 -1576.296398868   0.000000000000
 -1576.283758934   0.000000000000
 -1576.279040326   0.000000000000
 -1576.277358432   0.000000000000
 -1576.267299691   0.000000000000
 -1576.261433785   0.000000000000
 -1576.245263146   0.000000000000
 -1576.242492886   0.000000000000
 -1576.237272658   0.000000000000
 -1576.231309490   0.000000000000
 -1576.228959215   0.000000000000
 -1576.219321609   0.000000000000
 -1576.196908094   0.000000000000
 -1576.184767462   0.000000000000
 -1576.174975573   0.000000000000
 -1576.131382018   0.000000000000
 -1576.105411183   0.000000000000
 -1576.095697159   0.000000000000
 -1576.062278997   0.000000000000
 -1576.013404942   0.000000000000
 -1576.000776539   0.000000000000
 -1575.986904635   0.000000000000
 -1575.983566911   0.000000000000
 -1575.981059957   0.000000000000
 -1575.966745612   0.000000000000
 -1575.686397917   0.000000000000
 -1575.677349986   0.000000000000
 -1575.637870946   0.000000000000
 -1575.499312286   0.000000000000
 -1575.024836225   0.000000000000
   CI-PROBLEM SOLVED
   DENSITIES MADE
   E(CAS)= -1576.182487167 Eh DE=   -3.776609e-02
   --- Energy gap subspaces: Ext-Act = 0.377   Act-Int = 0.025
   --- current l-shift: Up(Ext-Act) = 0.62   Dn(Act-Int) = 0.98
   N(occ)=  1.40000 1.40000 1.40000 1.40000 1.40000
   ||g|| =     5.841771e-01 Max(G)=   -2.582575e-01 Rot=201,0
   --- Orbital Update [   SuperCI]
   SUPERCI-ITER   0: DE=    -0.028483975 <r|r>=      0.000235108
   SUPERCI-ITER   1: DE=    -0.000758613 <r|r>=      0.000087209
   SUPERCI-ITER   2: DE=    -0.000052754 <r|r>=      0.000000236
   SUPERCI-ITER   3: DE=    -0.000000114 <r|r>=      0.000000000
   <Psi(SX)|Psi(SX)>=      1.000000000 DE(SX)=-0.029295456
   Largest coefficient in the normalized |SX> wavefunction= 0.358026325
   --- Forming Natural Orbitals

MACRO-ITERATION   7: 
   --- Canonicalize Internal Space
   --- Canonicalize External Space
   --- Inactive Energy E0 = -1560.74456813 Eh
CI-ITERATION   0: 
 -1576.448002593   0.000000000000 (    0.00)
 -1576.403966892   0.000000000000
 -1576.378833935   0.000000000000
 -1576.371734817   0.000000000000
 -1576.362386358   0.000000000000
 -1576.353032472   0.000000000000
 -1576.346143988   0.000000000000
 -1576.236879007   0.000000000000
 -1576.228815036   0.000000000000
 -1576.203304446   0.000000000000
   CI-PROBLEM SOLVED
   DENSITIES MADE
CI-ITERATION   0: 
 -1576.394212750   0.000000000000 (    0.00)
 -1576.382348387   0.000000000000
 -1576.381476173   0.000000000000
 -1576.379505399   0.000000000000
 -1576.378162346   0.000000000000
 -1576.361620637   0.000000000000
 -1576.342617434   0.000000000000
 -1576.335352347   0.000000000000
 -1576.328040243   0.000000000000
 -1576.327455796   0.000000000000
 -1576.314838425   0.000000000000
 -1576.313232613   0.000000000000
 -1576.311273736   0.000000000000
 -1576.308058855   0.000000000000
 -1576.307188968   0.000000000000
 -1576.295942100   0.000000000000
 -1576.291062925   0.000000000000
 -1576.288960341   0.000000000000
 -1576.283782303   0.000000000000
 -1576.276482475   0.000000000000
 -1576.271551456   0.000000000000
 -1576.269980231   0.000000000000
 -1576.265804467   0.000000000000
 -1576.260113882   0.000000000000
 -1576.227698771   0.000000000000
 -1576.224808729   0.000000000000
 -1576.208974047   0.000000000000
 -1576.207430836   0.000000000000
 -1576.205918120   0.000000000000
 -1576.200665245   0.000000000000
 -1576.181145697   0.000000000000
 -1576.172649715   0.000000000000
 -1576.170206629   0.000000000000
 -1576.157982568   0.000000000000
 -1576.131088410   0.000000000000
 -1576.017781883   0.000000000000
 -1575.646805861   0.000000000000
 -1575.636865990   0.000000000000
 -1575.590681798   0.000000000000
 -1575.417232149   0.000000000000
   CI-PROBLEM SOLVED
   DENSITIES MADE
   E(CAS)= -1576.267492486 Eh DE=   -8.500532e-02
   --- Energy gap subspaces: Ext-Act = 0.410   Act-Int = 0.039
   --- current l-shift: Up(Ext-Act) = 0.59   Dn(Act-Int) = 0.96
   N(occ)=  1.40000 1.40000 1.40000 1.40000 1.40000
   ||g|| =     4.639945e-01 Max(G)=    1.647900e-01 Rot=23,22
   --- Orbital Update [   SuperCI]
   SUPERCI-ITER   0: DE=    -0.022216647 <r|r>=      0.000129078
   SUPERCI-ITER   1: DE=    -0.000412000 <r|r>=      0.000027687
   SUPERCI-ITER   2: DE=    -0.000018725 <r|r>=      0.000000094
   SUPERCI-ITER   3: DE=    -0.000000069 <r|r>=      0.000000001
   <Psi(SX)|Psi(SX)>=      1.000000000 DE(SX)=-0.022647441
   Largest coefficient in the normalized |SX> wavefunction= 0.312858639
   --- Forming Natural Orbitals

MACRO-ITERATION   8: 
   --- Canonicalize Internal Space
   --- Canonicalize External Space
   --- Inactive Energy E0 = -1560.21527323 Eh
CI-ITERATION   0: 
 -1576.516138756   0.000000000000 (    0.00)
 -1576.501856631   0.000000000000
 -1576.465167637   0.000000000000
 -1576.444196076   0.000000000000
 -1576.367935182   0.000000000000
 -1576.355417238   0.000000000000
 -1576.350194702   0.000000000000
 -1576.332518471   0.000000000000
 -1576.318189359   0.000000000000
 -1576.284478795   0.000000000000
   CI-PROBLEM SOLVED
   DENSITIES MADE
CI-ITERATION   0: 
 -1576.459592291   0.000000000000 (    0.00)
 -1576.447229289   0.000000000000
 -1576.433482566   0.000000000000
 -1576.427261202   0.000000000000
 -1576.423095903   0.000000000000
 -1576.419482672   0.000000000000
 -1576.413479171   0.000000000000
 -1576.405616092   0.000000000000
 -1576.402941638   0.000000000000
 -1576.396723324   0.000000000000
 -1576.394631110   0.000000000000
 -1576.376360405   0.000000000000
 -1576.374704490   0.000000000000
 -1576.373055034   0.000000000000
 -1576.363781626   0.000000000000
 -1576.355933621   0.000000000000
 -1576.340808758   0.000000000000
 -1576.339335025   0.000000000000
 -1576.333553175   0.000000000000
 -1576.322997825   0.000000000000
 -1576.317614245   0.000000000000
 -1576.295980324   0.000000000000
 -1576.291905948   0.000000000000
 -1576.288353570   0.000000000000
 -1576.286213754   0.000000000000
 -1576.282339068   0.000000000000
 -1576.281201903   0.000000000000
 -1576.275535269   0.000000000000
 -1576.269710497   0.000000000000
 -1576.265869388   0.000000000000
 -1576.264481856   0.000000000000
 -1576.252923457   0.000000000000
 -1576.250212022   0.000000000000
 -1576.226577803   0.000000000000
 -1576.210084521   0.000000000000
 -1576.147426611   0.000000000000
 -1575.551555670   0.000000000000
 -1575.542834498   0.000000000000
 -1575.524589867   0.000000000000
 -1575.485524271   0.000000000000
   CI-PROBLEM SOLVED
   DENSITIES MADE
   E(CAS)= -1576.323242139 Eh DE=   -5.574965e-02
   --- Energy gap subspaces: Ext-Act = 0.375   Act-Int = 0.076
   --- current l-shift: Up(Ext-Act) = 0.63   Dn(Act-Int) = 0.92
   N(occ)=  1.40000 1.40000 1.40000 1.40000 1.40000
   ||g|| =     2.058919e-01 Max(G)=   -7.184577e-02 Rot=23,22
   --- Orbital Update [   SuperCI]
   SUPERCI-ITER   0: DE=    -0.004803522 <r|r>=      0.000011260
   SUPERCI-ITER   1: DE=    -0.000007646 <r|r>=      0.000000561
   SUPERCI-ITER   2: DE=    -0.000000677 <r|r>=      0.000000005
   SUPERCI-ITER   3: DE=    -0.000000004 <r|r>=      0.000000000
   <Psi(SX)|Psi(SX)>=      1.000000000 DE(SX)=-0.004811849
   Largest coefficient in the normalized |SX> wavefunction= 0.102192812
   --- Forming Natural Orbitals

MACRO-ITERATION   9: 
   --- Canonicalize Internal Space
   --- Canonicalize External Space
   --- Inactive Energy E0 = -1560.12392763 Eh
CI-ITERATION   0: 
 -1576.535672153   0.000000000000 (    0.00)
 -1576.527799141   0.000000000000
 -1576.490221146   0.000000000000
 -1576.469494355   0.000000000000
 -1576.367121660   0.000000000000
 -1576.360853165   0.000000000000
 -1576.357738516   0.000000000000
 -1576.340470225   0.000000000000
 -1576.324659672   0.000000000000
 -1576.290503092   0.000000000000
   CI-PROBLEM SOLVED
   DENSITIES MADE
CI-ITERATION   0: 
 -1576.480282912   0.000000000000 (    0.00)
 -1576.467209623   0.000000000000
 -1576.454404155   0.000000000000
 -1576.447458297   0.000000000000
 -1576.442895852   0.000000000000
 -1576.438994123   0.000000000000
 -1576.436979561   0.000000000000
 -1576.426556961   0.000000000000
 -1576.423753793   0.000000000000
 -1576.420344949   0.000000000000
 -1576.411667980   0.000000000000
 -1576.398387240   0.000000000000
 -1576.397231214   0.000000000000
 -1576.395455077   0.000000000000
 -1576.384779183   0.000000000000
 -1576.378173996   0.000000000000
 -1576.349682287   0.000000000000
 -1576.348200356   0.000000000000
 -1576.342791728   0.000000000000
 -1576.335781642   0.000000000000
 -1576.327782491   0.000000000000
 -1576.308102858   0.000000000000
 -1576.305142641   0.000000000000
 -1576.297662560   0.000000000000
 -1576.290685173   0.000000000000
 -1576.289030193   0.000000000000
 -1576.285351705   0.000000000000
 -1576.283971392   0.000000000000
 -1576.281464648   0.000000000000
 -1576.269852124   0.000000000000
 -1576.268836374   0.000000000000
 -1576.258303954   0.000000000000
 -1576.255920852   0.000000000000
 -1576.245473494   0.000000000000
 -1576.230547311   0.000000000000
 -1576.150957225   0.000000000000
 -1575.565541414   0.000000000000
 -1575.560968016   0.000000000000
 -1575.536445588   0.000000000000
 -1575.492339528   0.000000000000
   CI-PROBLEM SOLVED
   DENSITIES MADE
   E(CAS)= -1576.336794287 Eh DE=   -1.355215e-02
   --- Energy gap subspaces: Ext-Act = 0.362   Act-Int = 0.038
   --- current l-shift: Up(Ext-Act) = 0.64   Dn(Act-Int) = 0.96
   N(occ)=  1.40000 1.40000 1.40000 1.40000 1.40000
   ||g|| =     1.302277e-01 Max(G)=   -9.116727e-02 Rot=24,19
   --- Orbital Update [   SuperCI]
   SUPERCI-ITER   0: DE=    -0.003626556 <r|r>=      0.000002409
   SUPERCI-ITER   1: DE=    -0.000002767 <r|r>=      0.000000228
   SUPERCI-ITER   2: DE=    -0.000000330 <r|r>=      0.000000001
   SUPERCI-ITER   3: DE=    -0.000000001 
   <Psi(SX)|Psi(SX)>=      1.000000000 DE(SX)=-0.003629654
   Largest coefficient in the normalized |SX> wavefunction= 0.109814129
   --- Forming Natural Orbitals

MACRO-ITERATION  10: 
   --- Canonicalize Internal Space
   --- Canonicalize External Space
   --- Inactive Energy E0 = -1559.81333996 Eh
CI-ITERATION   0: 
 -1576.540504772   0.000000000000 (    0.00)
 -1576.533322940   0.000000000000
 -1576.495942482   0.000000000000
 -1576.475960803   0.000000000000
 -1576.377993172   0.000000000000
 -1576.373745289   0.000000000000
 -1576.371037129   0.000000000000
 -1576.353471366   0.000000000000
 -1576.337041533   0.000000000000
 -1576.305080069   0.000000000000
   CI-PROBLEM SOLVED
   DENSITIES MADE
CI-ITERATION   0: 
 -1576.485288517   0.000000000000 (    0.00)
 -1576.472246776   0.000000000000
 -1576.459496844   0.000000000000
 -1576.452830375   0.000000000000
 -1576.447977828   0.000000000000
 -1576.444045545   0.000000000000
 -1576.442371559   0.000000000000
 -1576.431917079   0.000000000000
 -1576.428716481   0.000000000000
 -1576.425912109   0.000000000000
 -1576.417521393   0.000000000000
 -1576.405561054   0.000000000000
 -1576.403566812   0.000000000000
 -1576.401066984   0.000000000000
 -1576.390718147   0.000000000000
 -1576.384614734   0.000000000000
 -1576.357636153   0.000000000000
 -1576.354466436   0.000000000000
 -1576.349875654   0.000000000000
 -1576.345208901   0.000000000000
 -1576.334223114   0.000000000000
 -1576.316996128   0.000000000000
 -1576.314300610   0.000000000000
 -1576.307162498   0.000000000000
 -1576.299878242   0.000000000000
 -1576.298971159   0.000000000000
 -1576.296293402   0.000000000000
 -1576.292560152   0.000000000000
 -1576.291195826   0.000000000000
 -1576.279728818   0.000000000000
 -1576.278336109   0.000000000000
 -1576.270630201   0.000000000000
 -1576.267616841   0.000000000000
 -1576.251620934   0.000000000000
 -1576.236657309   0.000000000000
[...]
 3 106   44388.4    225.3   0.00000   0.00002   0.00000   0.00000000000076   0.00000   0.98914   0.01086
 3 107   44388.4    225.3   0.00000   0.00006   0.00000   0.00000000000238   0.00000   0.99650   0.00350
 3 108   44665.0    223.9   0.00000   0.00000   0.00000   0.00000000000000   0.00000   0.00000   0.00000
 3 109   44665.0    223.9   0.00000   0.00000   0.00000   0.00000000000000   0.00000   0.00000   1.00000
 3 110   65108.4    153.6   0.00000   0.00000   0.00000   0.00000000000001   0.00000   0.00000   0.00000
 3 111   65108.4    153.6   0.00000   0.00000   0.00000   0.00000000000001   0.00000   1.00000   0.00000
 3 112   65691.9    152.2   0.00000   0.00000   0.00000   0.00000000000001   0.00000   1.00000   0.00000
 3 113   65691.9    152.2   0.00000   0.00000   0.00000   0.00000000000009   0.00000   1.00000   0.00000
 3 114   66069.2    151.4   0.00000   0.00000   0.00000   0.00000000000001   0.00000   0.00000   1.00000
 3 115   66069.2    151.4   0.00000   0.00000   0.00000   0.00000000000001   0.00000   0.00000   1.00000
 3 116   70179.9    142.5   0.00000   0.00000   0.00000   0.00000000000001   0.00000   0.00000   1.00000
 3 117   70179.9    142.5   0.00000   0.00000   0.00000   0.00000000000001   0.00000   0.00000   1.00000
 3 118   70647.9    141.5   0.00000   0.00002   0.00000   0.00000000000106   0.00000   0.99103   0.00897
 3 119   70647.9    141.5   0.00000   0.00005   0.00000   0.00000000000207   0.00000   0.99542   0.00458

Done

                 =============================
                 AB INITIO LIGAND FIELD THEORY
                       d7 configuration
                          2 CI blocks
                         MOs 23 to 27
                 =============================

Metal/Atom center is atom 0
orbital phases =   1.0   1.0   1.0   1.0   1.0 
Metal/Atom d-orbital parts of active orbitals
Shell 15
             23        24        25        26        27
dz2     :  0.608859 -0.000000 -0.000000 -0.001276  0.000000
dxz     :  0.000001  0.613243 -0.000000  0.000000  0.000000
dyz     : -0.000000  0.000000  0.616149 -0.000000  0.000000
dx2y2   :  0.026632 -0.000002  0.000000  0.593424 -0.000000
dxy     : -0.000001 -0.000000 -0.000000  0.000001  0.613243
Shell 16
             23        24        25        26        27
dz2     :  0.406876 -0.000000  0.000000  0.000389 -0.000000
dxz     :  0.000001  0.407228  0.000000 -0.000000 -0.000000
dyz     : -0.000000  0.000000  0.412431  0.000000 -0.000000
dx2y2   :  0.019004 -0.000002  0.000000  0.395071 -0.000000
dxy     : -0.000001 -0.000000 -0.000000  0.000001  0.407228
Shell 17
             23        24        25        26        27
dz2     :  0.215051 -0.000000  0.000000 -0.003614  0.000000
dxz     :  0.000000  0.220302 -0.000000  0.000000 -0.000000
dyz     :  0.000000 -0.000000  0.215871  0.000000  0.000000
dx2y2   :  0.006331 -0.000000  0.000000  0.213397 -0.000000
dxy     : -0.000000 -0.000000  0.000000  0.000001  0.220302
Shell 20
             23        24        25        26        27
dz2     :  0.004014  0.000001 -0.000000  0.017332 -0.000000
dxz     :  0.000001  0.008977  0.000000 -0.000003 -0.000000
dyz     : -0.000000 -0.000000  0.013668 -0.000000  0.000000
dx2y2   :  0.017033 -0.000001  0.000000 -0.016905  0.000001
dxy     : -0.000001 -0.000000 -0.000000  0.000002  0.008977

Adjusting phases of one-electron integrals               ... done
Adjusting phases of two-electron integrals               ... done


-----------------------------------------------------------------
Computing F0s from 2-electron integrals                  ... done 
-----------------------------------------------------------------
F0   =  0.882433514 a.u. =    24.012 eV =  193671.8 cm**-1
-----------------------------------------------------------------

Preparing for fit                                        ... done
Making fit matrices                                      ... done
Calculating ab initio Hamiltonian matrices               ... 
Calculating fit matrices                                 ... done
Fitting                                                  ... done

------------------------------
AILFT MATRIX ELEMENTS (CASSCF)
--------------------------------

Ligand field one-electron matrix VLFT (a.u.) : 
Orbital          dz2        dxz        dyz        dx2-y2     dxy
  dz2         -5.893591  -0.000000   0.000000  -0.011757   0.000001 
  dxz         -0.000000  -5.891853  -0.000000   0.000001   0.000000 
  dyz          0.000000  -0.000000  -5.900024  -0.000000   0.000000 
  dx2-y2      -0.011757   0.000001  -0.000000  -5.878518  -0.000001 
  dxy          0.000001   0.000000   0.000000  -0.000001  -5.891853 

-------------------------------------------------
Slater-Condon Parameters (electronic repulsion) : 
-------------------------------------------------
F0dd(from 2el Ints)     =  0.882433514 a.u. =    24.012 eV =  193671.8 cm**-1 (fixed)
F2dd                    =  0.398347066 a.u. =    10.840 eV =   87427.1 cm**-1
F4dd                    =  0.252837873 a.u. =     6.880 eV =   55491.5 cm**-1
-------------------
Racah Parameters : 
-------------------
A(F0dd from 2el Ints)   =  0.854340417 a.u. =    23.248 eV =  187506.0 cm**-1
B                       =  0.005262889 a.u. =     0.143 eV =    1155.1 cm**-1
C                       =  0.020066498 a.u. =     0.546 eV =    4404.1 cm**-1
C/B                     =  3.813
-------------------------------------------------------------------------------

-----------------------------------------
The ligand field one electron eigenfunctions:
-----------------------------------------
Orbital    Energy (eV)  Energy(cm-1)      dz2        dxz        dyz        dx2-y2     dxy
    1          0.000        0.0         0.000230  -0.000028  -1.000000   0.000126   0.000040 
    2          0.000        1.0        -0.877395   0.000043  -0.000263  -0.479768   0.000027 
    3          0.222     1793.4        -0.000072  -0.998145   0.000031   0.000046   0.060875 
    4          0.222     1793.4         0.000004   0.060875   0.000038   0.000055   0.998145 
    5          0.760     6131.0         0.479768  -0.000072   0.000000  -0.877395   0.000051 
Ligand field orbitals were stored in rho.casscf.lft.gbw

Calculating ligand field Hamiltonian matrices          ... done
Diagonalizing and fitting the ligand field Hamiltonian ... done
Calculating statistical parameters                     ... done

Reference energy AI-LFT =    -23.251939209 au
Reference energy AI     =    -23.251224239 au

------------------------------------------------
COMPARISON OF AB INITIO AND LIGAND FIELD RESULTS
------------------------------------------------

Block   1
---------
   AI-Root   0: E(AI)=    0.000 eV -> LF-Root   0:     0.000 eV    S= 1.000 Delta=   -0.000 eV
   AI-Root   1: E(AI)=    0.000 eV -> LF-Root   1:     0.000 eV    S= 1.000 Delta=    0.000 eV
   AI-Root   2: E(AI)=    0.147 eV -> LF-Root   2:     0.117 eV    S= 1.000 Delta=    0.030 eV
   AI-Root   3: E(AI)=    0.259 eV -> LF-Root   3:     0.256 eV    S= 0.996 Delta=    0.003 eV
   AI-Root   4: E(AI)=    0.259 eV -> LF-Root   4:     0.235 eV    S= 0.996 Delta=    0.025 eV
   AI-Root   5: E(AI)=    0.450 eV -> LF-Root   5:     0.537 eV    S= 1.000 Delta=   -0.088 eV
   AI-Root   6: E(AI)=    0.450 eV -> LF-Root   6:     0.538 eV    S= 1.000 Delta=   -0.088 eV
   AI-Root   7: E(AI)=    2.124 eV -> LF-Root   7:     2.032 eV    S= 0.999 Delta=    0.092 eV
   AI-Root   8: E(AI)=    2.583 eV -> LF-Root   8:     2.652 eV    S= 0.997 Delta=   -0.068 eV
   AI-Root   9: E(AI)=    2.583 eV -> LF-Root   9:     2.674 eV    S= 0.996 Delta=   -0.090 eV
   RMS error for this block =     0.062 eV =     499.3 cm**-1 

Block   2
---------
   AI-Root   0: E(AI)=    2.083 eV -> LF-Root   0:     2.118 eV    S= 1.000 Delta=   -0.035 eV
   AI-Root   1: E(AI)=    2.084 eV -> LF-Root   1:     2.119 eV    S= 1.000 Delta=   -0.035 eV
   AI-Root   2: E(AI)=    2.271 eV -> LF-Root   2:     2.372 eV    S= 0.997 Delta=   -0.101 eV
   AI-Root   3: E(AI)=    2.271 eV -> LF-Root   3:     2.372 eV    S= 0.996 Delta=   -0.101 eV
   AI-Root   4: E(AI)=    2.304 eV -> LF-Root   4:     2.318 eV    S= 0.981 Delta=   -0.014 eV
   AI-Root   5: E(AI)=    2.304 eV -> LF-Root   5:     2.323 eV    S= 0.980 Delta=   -0.019 eV
   AI-Root   6: E(AI)=    2.416 eV -> LF-Root   6:     2.407 eV    S= 1.000 Delta=    0.009 eV
   AI-Root   7: E(AI)=    2.614 eV -> LF-Root   7:     2.588 eV    S= 0.996 Delta=    0.027 eV
   AI-Root   8: E(AI)=    2.614 eV -> LF-Root   8:     2.588 eV    S= 0.996 Delta=    0.027 eV
   AI-Root   9: E(AI)=    2.757 eV -> LF-Root   9:     2.807 eV    S= 0.960 Delta=   -0.051 eV
   AI-Root  10: E(AI)=    2.757 eV -> LF-Root  10:     2.785 eV    S= 0.961 Delta=   -0.028 eV
   AI-Root  11: E(AI)=    2.791 eV -> LF-Root  11:     2.878 eV    S= 0.997 Delta=   -0.087 eV
   AI-Root  12: E(AI)=    3.114 eV -> LF-Root  12:     3.101 eV    S= 0.990 Delta=    0.013 eV
   AI-Root  13: E(AI)=    3.114 eV -> LF-Root  13:     3.100 eV    S= 0.992 Delta=    0.014 eV
   AI-Root  14: E(AI)=    3.133 eV -> LF-Root  14:     3.090 eV    S= 0.999 Delta=    0.042 eV
   AI-Root  15: E(AI)=    3.133 eV -> LF-Root  15:     3.090 eV    S= 0.999 Delta=    0.042 eV
   AI-Root  16: E(AI)=    3.237 eV -> LF-Root  16:     3.242 eV    S= 0.986 Delta=   -0.005 eV
   AI-Root  17: E(AI)=    3.237 eV -> LF-Root  17:     3.245 eV    S= 0.983 Delta=   -0.007 eV
   AI-Root  18: E(AI)=    3.286 eV -> LF-Root  18:     3.309 eV    S= 0.991 Delta=   -0.023 eV
   AI-Root  19: E(AI)=    3.286 eV -> LF-Root  19:     3.309 eV    S= 0.991 Delta=   -0.023 eV
   AI-Root  20: E(AI)=    3.336 eV -> LF-Root  20:     3.379 eV    S= 0.918 Delta=   -0.043 eV
   AI-Root  21: E(AI)=    3.336 eV -> LF-Root  21:     3.377 eV    S= 0.986 Delta=   -0.041 eV
   AI-Root  22: E(AI)=    3.378 eV -> LF-Root  22:     3.363 eV    S= 0.930 Delta=    0.016 eV
   AI-Root  23: E(AI)=    3.545 eV -> LF-Root  23:     3.585 eV    S= 0.991 Delta=   -0.040 eV
   AI-Root  24: E(AI)=    3.545 eV -> LF-Root  24:     3.586 eV    S= 0.993 Delta=   -0.040 eV
   AI-Root  25: E(AI)=    3.615 eV -> LF-Root  25:     3.687 eV    S= 1.000 Delta=   -0.071 eV
   AI-Root  26: E(AI)=    3.615 eV -> LF-Root  26:     3.687 eV    S= 1.000 Delta=   -0.071 eV
   AI-Root  27: E(AI)=    3.616 eV -> LF-Root  27:     3.573 eV    S= 1.000 Delta=    0.043 eV
   AI-Root  28: E(AI)=    5.176 eV -> LF-Root  28:     5.223 eV    S= 1.000 Delta=   -0.047 eV
   AI-Root  29: E(AI)=    5.260 eV -> LF-Root  29:     5.291 eV    S= 0.998 Delta=   -0.031 eV
   AI-Root  30: E(AI)=    5.260 eV -> LF-Root  30:     5.292 eV    S= 0.997 Delta=   -0.032 eV
   AI-Root  31: E(AI)=    5.421 eV -> LF-Root  31:     5.443 eV    S= 1.000 Delta=   -0.022 eV
   AI-Root  32: E(AI)=    5.421 eV -> LF-Root  32:     5.443 eV    S= 1.000 Delta=   -0.022 eV
   AI-Root  33: E(AI)=    5.477 eV -> LF-Root  33:     5.511 eV    S= 0.996 Delta=   -0.034 eV
   AI-Root  34: E(AI)=    5.477 eV -> LF-Root  34:     5.511 eV    S= 0.996 Delta=   -0.034 eV
   AI-Root  35: E(AI)=    8.032 eV -> LF-Root  35:     7.958 eV    S= 1.000 Delta=    0.073 eV
   AI-Root  36: E(AI)=    8.125 eV -> LF-Root  36:     8.157 eV    S= 0.971 Delta=   -0.032 eV
   AI-Root  37: E(AI)=    8.125 eV -> LF-Root  37:     8.178 eV    S= 0.971 Delta=   -0.053 eV
   AI-Root  38: E(AI)=    8.688 eV -> LF-Root  38:     8.662 eV    S= 1.000 Delta=    0.026 eV
   AI-Root  39: E(AI)=    8.688 eV -> LF-Root  39:     8.663 eV    S= 1.000 Delta=    0.026 eV
   RMS error for this block =     0.044 eV =     356.2 cm**-1 

Total RMS error g=     0.049 eV =     393.0 cm**-1
Note: Dropped RMS error for the reference energy.

Confidence intervals (95%) computed from the square root of the
diagonal elements of the covariance matrix:
H(dz2   ,dz2   )=  0.000303507 a.u. =     0.008 eV =      66.6 cm**-1
H(dxz   ,dz2   )=  0.000256771 a.u. =     0.007 eV =      56.4 cm**-1
H(dxz   ,dxz   )=  0.000303507 a.u. =     0.008 eV =      66.6 cm**-1
H(dyz   ,dz2   )=  0.000256771 a.u. =     0.007 eV =      56.4 cm**-1
H(dyz   ,dxz   )=  0.000256771 a.u. =     0.007 eV =      56.4 cm**-1
H(dyz   ,dyz   )=  0.000303507 a.u. =     0.008 eV =      66.6 cm**-1
H(dx2-y2,dz2   )=  0.000256771 a.u. =     0.007 eV =      56.4 cm**-1
H(dx2-y2,dxz   )=  0.000256771 a.u. =     0.007 eV =      56.4 cm**-1
H(dx2-y2,dyz   )=  0.000256771 a.u. =     0.007 eV =      56.4 cm**-1
H(dx2-y2,dx2-y2)=  0.000303507 a.u. =     0.008 eV =      66.6 cm**-1
H(dxy   ,dz2   )=  0.000256771 a.u. =     0.007 eV =      56.4 cm**-1
H(dxy   ,dxz   )=  0.000256771 a.u. =     0.007 eV =      56.4 cm**-1
H(dxy   ,dyz   )=  0.000256771 a.u. =     0.007 eV =      56.4 cm**-1
H(dxy   ,dx2-y2)=  0.000256771 a.u. =     0.007 eV =      56.4 cm**-1
H(dxy   ,dxy   )=  0.000303507 a.u. =     0.008 eV =      66.6 cm**-1
F2dd            =  0.001089949 a.u. =     0.030 eV =     239.2 cm**-1
F4dd            =  0.001580813 a.u. =     0.043 eV =     346.9 cm**-1
Pearson's correlation coefficient =    1.000 (should be close to 1)

----------------------------------------------
SPIN ORBIT COUPLING (based on CASSCF orbitals)
----------------------------------------------

AI-SOC-X integrals (cm-1)
                  0          1          2          3          4    
      0       0.000000   0.001026 908.481727   0.000008   0.000997
      1      -0.001026  -0.000000  -0.002146   0.001181 513.336888
      2     -908.481727   0.002146  -0.000000 -496.766426  -0.000069
      3      -0.000008  -0.001181 496.766426   0.000000   0.000094
      4      -0.000997 -513.336888   0.000069  -0.000094   0.000000
AI-SOC-Y integrals (cm-1)
                  0          1          2          3          4    
      0      -0.000000 -859.487894  -0.000760  -0.001040   0.000008
      1     859.487894  -0.000000  -0.000010 -496.985203   0.000066
      2       0.000760   0.000010   0.000000  -0.001265 -515.675532
      3       0.001040 496.985203   0.001265  -0.000000   0.000002
      4      -0.000008  -0.000066 515.675532  -0.000002  -0.000000
AI-SOC-Z integrals (cm-1)
                  0          1          2          3          4    
      0      -0.000000  -0.000010  -0.000936  -0.001681 -45.410288
      1       0.000010  -0.000000 -515.675514  -0.000001   0.003796
      2       0.000936 515.675514   0.000000  -0.000201  -0.000013
      3       0.001681   0.000001   0.000201   0.000000 -991.792150
      4      45.410288  -0.003796   0.000013 991.792150  -0.000000

Fit to the SOC matrix elements
a = 15.000000
b =     0.940 eV =    7584.2 cm**-1
SOC constant zeta =     0.063 eV =     505.6 cm**-1


LF-SOC-X integrals (cm-1)
                  0          1          2          3          4    
      0       0.000000  -0.000000 875.752263  -0.000000  -0.000000
      1       0.000000   0.000000  -0.000000  -0.000000 505.615805
      2     -875.752263   0.000000   0.000000 -505.615805  -0.000000
      3       0.000000   0.000000 505.615805   0.000000  -0.000000
      4       0.000000 -505.615805   0.000000   0.000000   0.000000
LF-SOC-Y integrals (cm-1)
                  0          1          2          3          4    
      0       0.000000 -875.752263  -0.000000  -0.000000  -0.000000
      1     875.752263   0.000000  -0.000000 -505.615805  -0.000000
      2       0.000000   0.000000   0.000000  -0.000000 -505.615805
      3       0.000000 505.615805   0.000000   0.000000  -0.000000
      4       0.000000   0.000000 505.615805   0.000000   0.000000
LF-SOC-Z integrals (cm-1)
                  0          1          2          3          4    
      0       0.000000  -0.000000  -0.000000  -0.000000  -0.000000
      1       0.000000   0.000000 -505.615805  -0.000000  -0.000000
      2       0.000000 505.615805   0.000000  -0.000000  -0.000000
      3       0.000000   0.000000   0.000000   0.000000 -1011.231610
      4       0.000000   0.000000   0.000000 1011.231610   0.000000

RMS error of nonzero matrix elements =   21.6 cm**-1


-----SOC-CONSTANTS-----
---All Values in cm-1---
ZETA_D = 505.62 
------------------------




---AILFT COMPLETED SUCCESFULLY!---

--------------
CASSCF TIMINGS
--------------

Total time                       ...       90.3 sec
Sum of individual times          ...       89.9 sec ( 99.5%)

Calculation of AO operators
   F(Core) operator              ...       35.6 sec ( 39.4%)
   G(Act) operator               ...       34.4 sec ( 38.1%)
   J(AO) operators               ...        0.0 sec (  0.0%)
Calculation of MO transformed quantities
   J(MO) operators               ...        5.1 sec (  5.6%)
   (pq|rs) integrals             ...        0.0 sec (  0.0%)
   AO->MO one electron integrals ...        0.2 sec (  0.2%)
Configuration interaction steps
   CI-setup phase                ...        0.0 sec (  0.0%)
   CI-solution phase             ...        1.2 sec (  1.3%)
   Generation of densities       ...        0.1 sec (  0.1%)
Orbital improvement steps
   Orbital gradient              ...        0.1 sec (  0.1%)
   O(1) converger                ...        0.9 sec (  1.0%)
Properties                       ...        7.9 sec (  8.7%)
   SOC integral calculation      ...        4.4 sec (  4.9%)
   SSC RMEs (incl. integrals)    ...        0.0 sec (  0.0%)
   SOC RMEs                      ...        0.1 sec (  0.1%)

Maximum memory used throughout the entire CASSCF-calculation: 245.0 MB

-------------------------   --------------------
FINAL SINGLE POINT ENERGY     -1576.529165604632
-------------------------   --------------------


                            ***************************************
                            *     ORCA property calculations      *
                            ***************************************

                                    ---------------------
                                    Active property flags
                                    ---------------------
   (+) Dipole Moment


------------------------------------------------------------------------------
                       ORCA ELECTRIC PROPERTIES CALCULATION
------------------------------------------------------------------------------

Dipole Moment Calculation                       ... on
Quadrupole Moment Calculation                   ... off
Polarizability Calculation                      ... off
GBWName                                         ... rho.gbw
Electron density                                ... rho.scfp
The origin for moment calculation is the CENTER OF MASS  = (-0.000000,  0.000000 -0.000000)

-------------
DIPOLE MOMENT
-------------
                                X             Y             Z
Electronic contribution:     -0.00000       0.00000      -0.00000
Nuclear contribution   :      0.00000      -0.00000       0.00000
                        -----------------------------------------
Total Dipole Moment    :     -0.00000       0.00000      -0.00000
                        -----------------------------------------
Magnitude (a.u.)       :      0.00000
Magnitude (Debye)      :      0.00000



--------------------
Rotational spectrum 
--------------------
 
Rotational constants in cm-1: 167911040.005198     0.047870     0.047870 
Rotational constants in MHz : 5033846340849.452148  1435.120744  1435.120744 

 Dipole components along the rotational axes: 
x,y,z [a.u.] :     0.000000     0.000000     0.000000 
x,y,z [Debye]:     0.000000     0.000000     0.000000 

 

Timings for individual modules:

Sum of individual times         ...      109.961 sec (=   1.833 min)
GTO integral calculation        ...        4.293 sec (=   0.072 min)   3.9 %
Relativistic integrals          ...        3.236 sec (=   0.054 min)   2.9 %
SCF iterations                  ...        3.940 sec (=   0.066 min)   3.6 %
CASSCF iterations               ...       98.492 sec (=   1.642 min)  89.6 %
                             ****ORCA TERMINATED NORMALLY****
TOTAL RUN TIME: 0 days 0 hours 1 minutes 53 seconds 905 msec
