
                                 *****************
                                 * O   R   C   A *
                                 *****************

                                            #,                                       
                                            ###                                      
                                            ####                                     
                                            #####                                    
                                            ######                                   
                                           ########,                                 
                                     ,,################,,,,,                         
                               ,,#################################,,                 
                          ,,##########################################,,             
                       ,#########################################, ''#####,          
                    ,#############################################,,   '####,        
                  ,##################################################,,,,####,       
                ,###########''''           ''''###############################       
              ,#####''   ,,,,##########,,,,          '''####'''          '####       
            ,##' ,,,,###########################,,,                        '##       
           ' ,,###''''                  '''############,,,                           
         ,,##''                                '''############,,,,        ,,,,,,###''
      ,#''                                            '''#######################'''  
     '                                                          ''''####''''         
             ,#######,   #######,   ,#######,      ##                                
            ,#'     '#,  ##    ##  ,#'     '#,    #''#        ######   ,####,        
            ##       ##  ##   ,#'  ##            #'  '#       #        #'  '#        
            ##       ##  #######   ##           ,######,      #####,   #    #        
            '#,     ,#'  ##    ##  '#,     ,#' ,#      #,         ##   #,  ,#        
             '#######'   ##     ##  '#######'  #'      '#     #####' # '####'        



                  #######################################################
                  #                        -***-                        #
                  #          Department of theory and spectroscopy      #
                  #    Directorship and core code : Frank Neese         #
                  #        Max Planck Institute fuer Kohlenforschung    #
                  #                Kaiser Wilhelm Platz 1               #
                  #                 D-45470 Muelheim/Ruhr               #
                  #                      Germany                        #
                  #                                                     #
                  #                  All rights reserved                #
                  #                        -***-                        #
                  #######################################################


                         Program Version 5.0.4 -  RELEASE  -


 With contributions from (in alphabetic order):
   Daniel Aravena         : Magnetic Suceptibility
   Michael Atanasov       : Ab Initio Ligand Field Theory (pilot matlab implementation)
   Alexander A. Auer      : GIAO ZORA, VPT2 properties, NMR spectrum
   Ute Becker             : Parallelization
   Giovanni Bistoni       : ED, misc. LED, open-shell LED, HFLD
   Martin Brehm           : Molecular dynamics
   Dmytro Bykov           : SCF Hessian
   Vijay G. Chilkuri      : MRCI spin determinant printing, contributions to CSF-ICE
   Dipayan Datta          : RHF DLPNO-CCSD density
   Achintya Kumar Dutta   : EOM-CC, STEOM-CC
   Dmitry Ganyushin       : Spin-Orbit,Spin-Spin,Magnetic field MRCI
   Miquel Garcia          : C-PCM and meta-GGA Hessian, CC/C-PCM, Gaussian charge scheme
   Yang Guo               : DLPNO-NEVPT2, F12-NEVPT2, CIM, IAO-localization
   Andreas Hansen         : Spin unrestricted coupled pair/coupled cluster methods
   Benjamin Helmich-Paris : MC-RPA, TRAH-SCF, COSX integrals
   Lee Huntington         : MR-EOM, pCC
   Robert Izsak           : Overlap fitted RIJCOSX, COSX-SCS-MP3, EOM
   Marcus Kettner         : VPT2
   Christian Kollmar      : KDIIS, OOCD, Brueckner-CCSD(T), CCSD density, CASPT2, CASPT2-K
   Simone Kossmann        : Meta GGA functionals, TD-DFT gradient, OOMP2, MP2 Hessian
   Martin Krupicka        : Initial AUTO-CI
   Lucas Lang             : DCDCAS
   Marvin Lechner         : AUTO-CI (C++ implementation), FIC-MRCC
   Dagmar Lenk            : GEPOL surface, SMD
   Dimitrios Liakos       : Extrapolation schemes; Compound Job, initial MDCI parallelization
   Dimitrios Manganas     : Further ROCIS development; embedding schemes
   Dimitrios Pantazis     : SARC Basis sets
   Anastasios Papadopoulos: AUTO-CI, single reference methods and gradients
   Taras Petrenko         : DFT Hessian,TD-DFT gradient, ASA, ECA, R-Raman, ABS, FL, XAS/XES, NRVS
   Peter Pinski           : DLPNO-MP2, DLPNO-MP2 Gradient
   Christoph Reimann      : Effective Core Potentials
   Marius Retegan         : Local ZFS, SOC
   Christoph Riplinger    : Optimizer, TS searches, QM/MM, DLPNO-CCSD(T), (RO)-DLPNO pert. Triples
   Tobias Risthaus        : Range-separated hybrids, TD-DFT gradient, RPA, STAB
   Michael Roemelt        : Original ROCIS implementation
   Masaaki Saitow         : Open-shell DLPNO-CCSD energy and density
   Barbara Sandhoefer     : DKH picture change effects
   Avijit Sen             : IP-ROCIS
   Kantharuban Sivalingam : CASSCF convergence, NEVPT2, FIC-MRCI
   Bernardo de Souza      : ESD, SOC TD-DFT
   Georgi Stoychev        : AutoAux, RI-MP2 NMR, DLPNO-MP2 response
   Willem Van den Heuvel  : Paramagnetic NMR
   Boris Wezisla          : Elementary symmetry handling
   Frank Wennmohs         : Technical directorship


 We gratefully acknowledge several colleagues who have allowed us to
 interface, adapt or use parts of their codes:
   Stefan Grimme, W. Hujo, H. Kruse, P. Pracht,  : VdW corrections, initial TS optimization,
                  C. Bannwarth, S. Ehlert          DFT functionals, gCP, sTDA/sTD-DF
   Ed Valeev, F. Pavosevic, A. Kumar             : LibInt (2-el integral package), F12 methods
   Garnet Chan, S. Sharma, J. Yang, R. Olivares  : DMRG
   Ulf Ekstrom                                   : XCFun DFT Library
   Mihaly Kallay                                 : mrcc  (arbitrary order and MRCC methods)
   Jiri Pittner, Ondrej Demel                    : Mk-CCSD
   Frank Weinhold                                : gennbo (NPA and NBO analysis)
   Christopher J. Cramer and Donald G. Truhlar   : smd solvation model
   Lars Goerigk                                  : TD-DFT with DH, B97 family of functionals
   V. Asgeirsson, H. Jonsson                     : NEB implementation
   FAccTs GmbH                                   : IRC, NEB, NEB-TS, DLPNO-Multilevel, CI-OPT
                                                   MM, QMMM, 2- and 3-layer-ONIOM, Crystal-QMMM,
                                                   LR-CPCM, SF, NACMEs, symmetry and pop. for TD-DFT,
                                                   nearIR, NL-DFT gradient (VV10), updates on ESD,
                                                   ML-optimized integration grids
   S Lehtola, MJT Oliveira, MAL Marques          : LibXC Library
   Liviu Ungur et al                             : ANISO software


 Your calculation uses the libint2 library for the computation of 2-el integrals
 For citations please refer to: http://libint.valeyev.net

 Your ORCA version has been built with support for libXC version: 5.1.0
 For citations please refer to: https://tddft.org/programs/libxc/

 This ORCA versions uses:
   CBLAS   interface :  Fast vector & matrix operations
   LAPACKE interface :  Fast linear algebra routines
   SCALAPACK package :  Parallel linear algebra routines
   Shared memory     :  Shared parallel matrices
   BLAS/LAPACK       :  OpenBLAS 0.3.15  USE64BITINT DYNAMIC_ARCH NO_AFFINITY Zen SINGLE_THREADED
        Core in use  :  Zen
   Copyright (c) 2011-2014, The OpenBLAS Project




***************************************
The coordinates will be read from file: geo.xyz
***************************************


================================================================================

----- Orbital basis set information -----
Your calculation utilizes the basis: DKH-def2-TZVPP
   Exponents from def2-TZVPP [F. Weigend and R. Ahlrichs, Phys. Chem. Chem. Phys. 7, 3297 (2005)],
   recontracted for DKH2 by D. A. Pantazis.

----- AuxJ basis set information -----
Your calculation utilizes the AutoAux generation procedure.
  G. L. Stoychev, A. A. Auer, F. Neese, J. Chem. Theory Comput. 13, 554 (2017)

----- AuxC basis set information -----
Your calculation utilizes the AutoAux generation procedure.
  G. L. Stoychev, A. A. Auer, F. Neese, J. Chem. Theory Comput. 13, 554 (2017)

----- AuxJK basis set information -----
Your calculation utilizes the AutoAux generation procedure.
  G. L. Stoychev, A. A. Auer, F. Neese, J. Chem. Theory Comput. 13, 554 (2017)

================================================================================
                                        WARNINGS
                       Please study these warnings very carefully!
================================================================================


INFO   : the flag for use of the SHARK integral package has been found!

================================================================================
                                       INPUT FILE
================================================================================
NAME = rho.inp
|  1> !CASSCF  DKH DKH-def2-TZVPP  RIJCOSX NoSFitting VeryTightSCF autoaux moread SlowConv
|  2> %moinp "orb.gbw"
|  3> %pal
|  4> nprocs 10
|  5> end
|  6> %maxcore 4000
|  7> # swap
|  8> %scf
|  9>  Rotate
| 10>   { 31, 29 }
| 11>  end
| 12> end
| 13> #
| 14> %rel
| 15>  picturechange 2
| 16> end
| 17> %casscf
| 18>  nel  7
| 19>  norb 5
| 20>  mult 4,2
| 21>  nroots 10,40
| 22>  maxiter 100
| 23>  ActOrbs dOrbs
| 24>  rel
| 25>   printlevel 3
| 26>   dosoc true
| 27>   gtensor true
| 28>   quad true
| 29>  end
| 30> end
| 31> * xyzfile 0 4 geo.xyz *
| 32> 
| 33>                          ****END OF INPUT****
================================================================================

                       ****************************
                       * Single Point Calculation *
                       ****************************

---------------------------------
CARTESIAN COORDINATES (ANGSTROEM)
---------------------------------
  Co     0.000000   -0.000009    0.000069
  N      1.778943   -0.009676   -0.001332
  C      2.991790   -0.016359   -0.002268
  O      4.172496   -0.022886   -0.003183
  N     -1.778943    0.009659    0.001459
  C     -2.991790    0.016335    0.002440
  O     -4.172496    0.022856    0.003393

----------------------------
CARTESIAN COORDINATES (A.U.)
----------------------------
  NO LB      ZA    FRAG     MASS         X           Y           Z
   0 Co   27.0000    0    58.930    0.000000   -0.000018    0.000130
   1 N     7.0000    0    14.007    3.361716   -0.018286   -0.002517
   2 C     6.0000    0    12.011    5.653663   -0.030915   -0.004286
   3 O     8.0000    0    15.999    7.884875   -0.043248   -0.006016
   4 N     7.0000    0    14.007   -3.361716    0.018253    0.002758
   5 C     6.0000    0    12.011   -5.653663    0.030868    0.004610
   6 O     8.0000    0    15.999   -7.884875    0.043191    0.006411

--------------------------------
INTERNAL COORDINATES (ANGSTROEM)
--------------------------------
 Co     0   0   0     0.000000000000     0.00000000     0.00000000
 N      1   0   0     1.778970063412     0.00000000     0.00000000
 C      2   1   0     1.212865277901   179.99555417     0.00000000
 O      3   2   1     1.180724632768   179.99895480    24.65144208
 N      1   2   3     1.778970054111   179.99967095   251.00032766
 C      5   1   2     1.212865284018   179.99574160   256.34661469
 O      6   5   1     1.180724637064   179.99893896    23.19294386

---------------------------
INTERNAL COORDINATES (A.U.)
---------------------------
 Co     0   0   0     0.000000000000     0.00000000     0.00000000
 N      1   0   0     3.361766220293     0.00000000     0.00000000
 C      2   1   0     2.291983212575   179.99555417     0.00000000
 O      3   2   1     2.231246195506   179.99895480    24.65144208
 N      1   2   3     3.361766202716   179.99967095   251.00032766
 C      5   1   2     2.291983224135   179.99574160   256.34661469
 O      6   5   1     2.231246203625   179.99893896    23.19294386

---------------------
BASIS SET INFORMATION
---------------------
There are 4 groups of distinct atoms

 Group   1 Type Co  : 17s12p7d2f1g contracted to 10s7p4d2f1g pattern {8111111111/6111111/4111/11/1}
 Group   2 Type N   : 11s6p2d1f contracted to 6s3p2d1f pattern {611111/411/11/1}
 Group   3 Type C   : 11s6p2d1f contracted to 6s3p2d1f pattern {611111/411/11/1}
 Group   4 Type O   : 11s6p2d1f contracted to 6s3p2d1f pattern {611111/411/11/1}

Atom   0Co   basis set group =>   1
Atom   1N    basis set group =>   2
Atom   2C    basis set group =>   3
Atom   3O    basis set group =>   4
Atom   4N    basis set group =>   2
Atom   5C    basis set group =>   3
Atom   6O    basis set group =>   4
---------------------------------
AUXILIARY/J BASIS SET INFORMATION
---------------------------------
There are 4 groups of distinct atoms

 Group   1 Type Co  : 22s18p17d17f16g6h3i contracted to 22s18p17d17f16g6h3i pattern {1111111111111111111111/111111111111111111/11111111111111111/11111111111111111/1111111111111111/111111/111}
 Group   2 Type N   : 16s13p12d7f3g contracted to 16s13p12d7f3g pattern {1111111111111111/1111111111111/111111111111/1111111/111}
 Group   3 Type C   : 16s13p12d7f3g contracted to 16s13p12d7f3g pattern {1111111111111111/1111111111111/111111111111/1111111/111}
 Group   4 Type O   : 16s13p12d7f3g contracted to 16s13p12d7f3g pattern {1111111111111111/1111111111111/111111111111/1111111/111}

Atom   0Co   basis set group =>   1
Atom   1N    basis set group =>   2
Atom   2C    basis set group =>   3
Atom   3O    basis set group =>   4
Atom   4N    basis set group =>   2
Atom   5C    basis set group =>   3
Atom   6O    basis set group =>   4
---------------------------------
AUXILIARY/C BASIS SET INFORMATION
---------------------------------
There are 4 groups of distinct atoms

 Group   1 Type Co  : 22s18p17d17f16g6h3i contracted to 22s18p17d17f16g6h3i pattern {1111111111111111111111/111111111111111111/11111111111111111/11111111111111111/1111111111111111/111111/111}
 Group   2 Type N   : 16s13p12d7f3g contracted to 16s13p12d7f3g pattern {1111111111111111/1111111111111/111111111111/1111111/111}
 Group   3 Type C   : 16s13p12d7f3g contracted to 16s13p12d7f3g pattern {1111111111111111/1111111111111/111111111111/1111111/111}
 Group   4 Type O   : 16s13p12d7f3g contracted to 16s13p12d7f3g pattern {1111111111111111/1111111111111/111111111111/1111111/111}

Atom   0Co   basis set group =>   1
Atom   1N    basis set group =>   2
Atom   2C    basis set group =>   3
Atom   3O    basis set group =>   4
Atom   4N    basis set group =>   2
Atom   5C    basis set group =>   3
Atom   6O    basis set group =>   4
----------------------------------
AUXILIARY/JK BASIS SET INFORMATION
----------------------------------
There are 4 groups of distinct atoms

 Group   1 Type Co  : 22s18p17d17f16g6h3i contracted to 22s18p17d17f16g6h3i pattern {1111111111111111111111/111111111111111111/11111111111111111/11111111111111111/1111111111111111/111111/111}
 Group   2 Type N   : 16s13p12d7f3g contracted to 16s13p12d7f3g pattern {1111111111111111/1111111111111/111111111111/1111111/111}
 Group   3 Type C   : 16s13p12d7f3g contracted to 16s13p12d7f3g pattern {1111111111111111/1111111111111/111111111111/1111111/111}
 Group   4 Type O   : 16s13p12d7f3g contracted to 16s13p12d7f3g pattern {1111111111111111/1111111111111/111111111111/1111111/111}

Atom   0Co   basis set group =>   1
Atom   1N    basis set group =>   2
Atom   2C    basis set group =>   3
Atom   3O    basis set group =>   4
Atom   4N    basis set group =>   2
Atom   5C    basis set group =>   3
Atom   6O    basis set group =>   4


           ************************************************************
           *        Program running with 10 parallel MPI-processes    *
           *              working on a common directory               *
           ************************************************************
------------------------------------------------------------------------------
                           ORCA GTO INTEGRAL CALCULATION
                           -- RI-GTO INTEGRALS CHOSEN --
------------------------------------------------------------------------------
------------------------------------------------------------------------------
                   ___                                                        
                  /   \      - P O W E R E D   B Y -                         
                 /     \                                                     
                 |  |  |   _    _      __       _____    __    __             
                 |  |  |  | |  | |    /  \     |  _  \  |  |  /  |          
                  \  \/   | |  | |   /    \    | | | |  |  | /  /          
                 / \  \   | |__| |  /  /\  \   | |_| |  |  |/  /          
                |  |  |   |  __  | /  /__\  \  |    /   |      \           
                |  |  |   | |  | | |   __   |  |    \   |  |\   \          
                \     /   | |  | | |  |  |  |  | |\  \  |  | \   \       
                 \___/    |_|  |_| |__|  |__|  |_| \__\ |__|  \__/        
                                                                              
                      - O R C A' S   B I G   F R I E N D -                    
                                      &                                       
                       - I N T E G R A L  F E E D E R -                       
                                                                              
 v1 FN, 2020, v2 2021                                                         
------------------------------------------------------------------------------


Reading SHARK input file rho.SHARKINP.tmp ... ok
----------------------
SHARK INTEGRAL PACKAGE
----------------------

Number of atoms                             ...      7
Number of basis functions                   ...    266
Number of shells                            ...     96
Maximum angular momentum                    ...      4
Integral batch strategy                     ... SHARK/LIBINT Hybrid
RI-J (if used) integral strategy            ... SPLIT-RIJ (Revised 2003 algorithm where possible)
Printlevel                                  ...      1
Contraction scheme used                     ... SEGMENTED contraction
Coulomb Range Separation                    ... NOT USED
Exchange Range Separation                   ... NOT USED
Finite Nucleus Model                        ... NOT USED
Auxiliary Coulomb fitting basis             ... AVAILABLE
   # of basis functions in Aux-J            ...   1675
   # of shells in Aux-J                     ...    405
   Maximum angular momentum in Aux-J        ...      6
Auxiliary J/K fitting basis                 ... AVAILABLE
   # of basis functions in Aux-JK           ...   1675
   # of shells in Aux-JK                    ...    405
   Maximum angular momentum in Aux-JK       ...      6
Auxiliary Correlation fitting basis         ... AVAILABLE
   # of basis functions in Aux-C            ...   1675
   # of shells in Aux-C                     ...    405
   Maximum angular momentum in Aux-C        ...      6
Auxiliary 'external' fitting basis          ... NOT available
Integral threshold                          ...     1.000000e-12
Primitive cut-off                           ...     1.000000e-14
Primitive pair pre-selection threshold      ...     1.000000e-14

Calculating pre-screening integrals         ... done (  0.1 sec) Dimension = 96
Organizing shell pair data                  ... done (  0.1 sec)
Shell pair information
Total number of shell pairs                 ...      4656
Shell pairs after pre-screening             ...      3578
Total number of primitive shell pairs       ...     12895
Primitive shell pairs kept                  ...      7623
          la=0 lb=0:    725 shell pairs
          la=1 lb=0:    926 shell pairs
          la=1 lb=1:    296 shell pairs
          la=2 lb=0:    550 shell pairs
          la=2 lb=1:    346 shell pairs
          la=2 lb=2:    113 shell pairs
          la=3 lb=0:    256 shell pairs
          la=3 lb=1:    166 shell pairs
          la=3 lb=2:     96 shell pairs
          la=3 lb=3:     28 shell pairs
          la=4 lb=0:     32 shell pairs
          la=4 lb=1:     23 shell pairs
          la=4 lb=2:     14 shell pairs
          la=4 lb=3:      6 shell pairs
          la=4 lb=4:      1 shell pairs

Calculating one electron integrals          ... done (  0.0 sec)
Calculating RI/J V-Matrix + Cholesky decomp.... done (  0.2 sec)
Calculating RI/JK V-Matrix + Cholesky decomp... done (  0.2 sec)
Calculating RI/C V-Matrix + Cholesky decomp.... done (  0.2 sec)
Calculating Nuclear repulsion               ... done (  0.0 sec) ENN=    369.867793336334 Eh

SHARK setup successfully completed in   0.9 seconds

Maximum memory used throughout the entire GTOINT-calculation: 37.9 MB


           ************************************************************
           *        Program running with 10 parallel MPI-processes    *
           *              working on a common directory               *
           ************************************************************
------------------------------------------------------------------------------
                          ORCA RELATIVISTIC HAMILTONIAN
------------------------------------------------------------------------------

Relativistic Method            ... DKH
Order of DKH treatment         ...   2
Treatment of potential         ... V(e,N)
Eps parameter for DKH          ...   0.00000000010000
Nucleus model                  ... Point Nucleus
Speed of light used            ... 137.03598950000000


            ************************************************
            *        DOUGLAS-KROLL-HESS HAMILTONIAN        *
            *   Programmed by FN according to literature   *
            *        procedures. Special thanks to         *
            *       B.A. Hess, M. Reiher and A. Wolf       *
            *     University Erlangen-Nuernberg/Bonn       *
            ************************************************

Uncontracting the basis (first version)        ... done
Number of contracted basis functions           ...  266
Number of uncontracted basis functions         ...  387
Initializing the DKH file                      ... done
Calculating the relativistic integrals         ... done
Storing DKH matrices                           ... done
Code used for DKH trafo                        ... ORCA
Computing the DKH transformation               ... done
Storing the transformation variables           ... done
Transforming V and pVp to p**2 space           ... done
First transformation of V and pVp              ... done
Second transformation of Veff                  ... done
Adding kinetic energy                          ... done
Back transformation of Veff to r-space         ... done
Recovering DKH matrices                        ... done
Recontracting the H-matrix (first version)     ... done
Computing the DKH correction to the H-matrix   ... done
Reading the original H-matrix                  ... done
Adding DKH correction to the H-matrix          ... done
Storing the new modified H-matrix              ... done

Maximum memory used throughout the entire REL-calculation: 70.3 MB


           ************************************************************
           *        Program running with 10 parallel MPI-processes    *
           *              working on a common directory               *
           ************************************************************
-------------------------------------------------------------------------------
                                 ORCA SCF
-------------------------------------------------------------------------------

------------
SCF SETTINGS
------------
Hamiltonian:
 Ab initio Hamiltonian  Method          .... Hartree-Fock(GTOs)
 RI-approximation to the Coulomb term is turned on
   Number of AuxJ basis functions       .... 1675
   RIJ-COSX (HFX calculated with COS-X)).... on

Relativistic Settings:
 Scalar relativistic method             .... Douglas-Kroll-Hess
 Order of DKH procedure    Order        ....    2
 Mode of DKH-treatment                  .... V=V(e,N)
 Speed of light used       Velit        ....       137.035989
 Cutoff-constant           Eps          ....            1e-10 


General Settings:
 Integral files         IntName         .... rho
 Hartree-Fock type      HFTyp           .... CASSCF
 Total Charge           Charge          ....    0
 Multiplicity           Mult            ....    4
 Number of Electrons    NEL             ....   69
 Basis Dimension        Dim             ....  266
 Nuclear Repulsion      ENuc            ....    369.8677933363 Eh


Diagonalization of the overlap matrix:
Smallest eigenvalue                        ... 1.373e-04
Time for diagonalization                   ...    0.011 sec
Threshold for overlap eigenvalues          ... 1.000e-08
Number of eigenvalues below threshold      ... 0
Time for construction of square roots      ...    0.009 sec
Total time needed                          ...    0.021 sec

---------------------
INITIAL GUESS: MOREAD
---------------------
Guess MOs are being read from file: orb.gbw
Input Geometry matches current geometry (good)
Atom 0: N(Shells)= 24 and 18 - projection required
Input basis set needs projection
NBasis(read)= 250
NBasis(calc)= 266
Basis set overlap was calculated
Using GuessMode=CMatrix for the initial guess
Initial orthogonal set was formed
CASSCF - fitting 2 shells:
   closed-shell contains  31 orbitals (  0 ...  30)
   active space contains   5 orbitals ( 31 ...  35)
Virtual orbitals were projected
Gram-Schmidt orthogonalization of all MOs with pivot on actives
-----------------
ORBITAL ROTATIONS
-----------------
  Rotation  31(0)   29(0) cos(t)= 0.000000  sin(t)= 1.000000
  Orbital Energies were swapped
Initial density was built
Canonicalizing active space vectors CAS(7,5) {31-35} C(266,266) Cact Ract BOVL(250,266) COVL Diag BackTrafo Restore
Active space vectors have been canonicalized
                      ------------------
                      INITIAL GUESS DONE (   0.2 sec)
                      ------------------
--------------------
COSX GRID GENERATION
--------------------

GRIDX 1
-------
General Integration Accuracy     IntAcc      ... 3.816
Radial Grid Type                 RadialGrid  ... OptM3 with GC (2021)
Angular Grid (max. ang.)         AngularGrid ... 1 (Lebedev-50)
Angular grid pruning method      GridPruning ... 4 (adaptive)
Weight generation scheme         WeightScheme... Becke
Basis function cutoff            BFCut       ... 1.0000e-12
Integration weight cutoff        WCut        ... 1.0000e-14
Angular grids for H and He will be reduced by one unit
Partially contracted basis set               ... on
Rotationally invariant grid construction     ... off

Total number of grid points                  ...     5798
Total number of batches                      ...       95
Average number of points per batch           ...       61
Average number of grid points per atom       ...      828

GRIDX 2
-------
General Integration Accuracy     IntAcc      ... 4.020
Radial Grid Type                 RadialGrid  ... OptM3 with GC (2021)
Angular Grid (max. ang.)         AngularGrid ... 2 (Lebedev-110)
Angular grid pruning method      GridPruning ... 4 (adaptive)
Weight generation scheme         WeightScheme... Becke
Basis function cutoff            BFCut       ... 1.0000e-12
Integration weight cutoff        WCut        ... 1.0000e-14
Angular grids for H and He will be reduced by one unit
Partially contracted basis set               ... on
Rotationally invariant grid construction     ... off

Total number of grid points                  ...    13826
Total number of batches                      ...      218
Average number of points per batch           ...       63
Average number of grid points per atom       ...     1975

GRIDX 3
-------
General Integration Accuracy     IntAcc      ... 4.338
Radial Grid Type                 RadialGrid  ... OptM3 with GC (2021)
Angular Grid (max. ang.)         AngularGrid ... 3 (Lebedev-194)
Angular grid pruning method      GridPruning ... 4 (adaptive)
Weight generation scheme         WeightScheme... Becke
Basis function cutoff            BFCut       ... 1.0000e-12
Integration weight cutoff        WCut        ... 1.0000e-14
Angular grids for H and He will be reduced by one unit
Partially contracted basis set               ... on
Rotationally invariant grid construction     ... off

Total number of grid points                  ...    30984
Total number of batches                      ...      488
Average number of points per batch           ...       63
Average number of grid points per atom       ...     4426

Time for X-Grid setup             =    0.238 sec



 ... the calculation is a CASSCF calculation -I'm leaving here GOOD LUCK!!!



           ************************************************************
           *        Program running with 10 parallel MPI-processes    *
           *              working on a common directory               *
           ************************************************************
-------------------------------------------------------------------------------
                              ORCA-CASSCF
-------------------------------------------------------------------------------

Setting up the integral package       ... done
Setting up the integral package (RI)  ... done
Building the CAS space                ... done (10 configurations for Mult=4)
Building the CAS space                ... done (30 configurations for Mult=2)

SYSTEM-SPECIFIC SETTINGS:
Number of active electrons          ...    7
Number of active orbitals           ...    5
Total number of electrons           ...   69
Total number of orbitals            ...  266
Total number aux. functions         ... 1675

Determined orbital ranges:
   Internal       0 -   30 (  31 orbitals)
   Active        31 -   35 (   5 orbitals)
   External      36 -  265 ( 230 orbitals)
Number of rotation parameters      ...   8435

CI-STEP:
CI strategy                         ... General CI
Number of multiplicity blocks       ...    2
BLOCK  1 WEIGHT=   0.5000
  Multiplicity                      ...    4
  #(Configurations)                 ...   10
  #(CSFs)                           ...   10
  #(Roots)                          ...   10
    ROOT=0 WEIGHT=    0.050000
    ROOT=1 WEIGHT=    0.050000
    ROOT=2 WEIGHT=    0.050000
    ROOT=3 WEIGHT=    0.050000
    ROOT=4 WEIGHT=    0.050000
    ROOT=5 WEIGHT=    0.050000
    ROOT=6 WEIGHT=    0.050000
    ROOT=7 WEIGHT=    0.050000
    ROOT=8 WEIGHT=    0.050000
    ROOT=9 WEIGHT=    0.050000

BLOCK  2 WEIGHT=   0.5000
  Multiplicity                      ...    2
  #(Configurations)                 ...   30
  #(CSFs)                           ...   40
  #(Roots)                          ...   40
    ROOT=0 WEIGHT=    0.012500
    ROOT=1 WEIGHT=    0.012500
    ROOT=2 WEIGHT=    0.012500
    ROOT=3 WEIGHT=    0.012500
    ROOT=4 WEIGHT=    0.012500
    ROOT=5 WEIGHT=    0.012500
    ROOT=6 WEIGHT=    0.012500
    ROOT=7 WEIGHT=    0.012500
    ROOT=8 WEIGHT=    0.012500
    ROOT=9 WEIGHT=    0.012500
    ROOT=10 WEIGHT=    0.012500
    ROOT=11 WEIGHT=    0.012500
    ROOT=12 WEIGHT=    0.012500
    ROOT=13 WEIGHT=    0.012500
    ROOT=14 WEIGHT=    0.012500
    ROOT=15 WEIGHT=    0.012500
    ROOT=16 WEIGHT=    0.012500
    ROOT=17 WEIGHT=    0.012500
    ROOT=18 WEIGHT=    0.012500
    ROOT=19 WEIGHT=    0.012500
    ROOT=20 WEIGHT=    0.012500
    ROOT=21 WEIGHT=    0.012500
    ROOT=22 WEIGHT=    0.012500
    ROOT=23 WEIGHT=    0.012500
    ROOT=24 WEIGHT=    0.012500
    ROOT=25 WEIGHT=    0.012500
    ROOT=26 WEIGHT=    0.012500
    ROOT=27 WEIGHT=    0.012500
    ROOT=28 WEIGHT=    0.012500
    ROOT=29 WEIGHT=    0.012500
    ROOT=30 WEIGHT=    0.012500
    ROOT=31 WEIGHT=    0.012500
    ROOT=32 WEIGHT=    0.012500
    ROOT=33 WEIGHT=    0.012500
    ROOT=34 WEIGHT=    0.012500
    ROOT=35 WEIGHT=    0.012500
    ROOT=36 WEIGHT=    0.012500
    ROOT=37 WEIGHT=    0.012500
    ROOT=38 WEIGHT=    0.012500
    ROOT=39 WEIGHT=    0.012500

  PrintLevel                        ...    1
  N(GuessMat)                       ...       512
  MaxDim(CI)                        ...        10
  MaxIter(CI)                       ...        64
  Energy Tolerance CI               ...  1.00e-09
  Residual Tolerance CI             ...  1.00e-09
  Shift(CI)                         ...  1.00e-04

INTEGRAL-TRANSFORMATION-STEP:
  Algorithm                         ... RI-MO

ORBITAL-IMPROVEMENT-STEP:
  Algorithm                         ... SuperCI
  Default Parametrization           ... CAYLEY
  Act-Act rotations                 ... depends on algorithm used
  FreezeIE                          ... 95.00% of ||g||
  Until reaching FreezeIE rotations with active orbitals are damped. 

  Approx. Fock at                   ... 0.000000e+00 density convergence
  Level shift                       ... energy gap dependent. Minimum=1.000
  Switch step at gradient           ...  3.00e-02 
  Switch step at iteration          ...        50   
  Switch step to                    ... DIIS    

SCF-SETTINGS:
  Incremental                       ... off
  RIJCOSX approximation             ... on
  UseFinalGrid                      ... on
  RI-JK approximation               ... off
  AO integral handling              ... DIRECT
  Integral Neglect Thresh           ...  1.00e-12
  Primitive cutoff TCut             ...  1.00e-14
  Energy convergence tolerance      ...  1.00e-08
  Orbital gradient convergence      ...  1.00e-05
  Max. number of iterations         ...       100  


PROPERTIES-SETTINGS:
  Spin orbit coupling               ... true
  GTensor                           ... true

FINAL ORBITALS:
  Active   Orbitals                 ... d-orbitals 
  Internal Orbitals                 ... canonical 
  External Orbitals                 ... canonical 

------------------
CAS-SCF ITERATIONS
------------------


MACRO-ITERATION   1: 
   --- Canonicalize Internal Space
   --- Canonicalize External Space
   --- Inactive Energy E0 = -1704.20843528 Eh
CI-ITERATION   0: 
 -1725.436476507   0.000000000000 (    0.00)
 -1725.434729025   0.000000000000
 -1725.426901617   0.000000000000
 -1725.423398713   0.000000000000
 -1725.422592574   0.000000000000
 -1725.420750014   0.000000000000
 -1725.418824398   0.000000000000
 -1725.366221593   0.000000000000
 -1725.353594537   0.000000000000
 -1725.338216901   0.000000000000
   CI-PROBLEM SOLVED
   DENSITIES MADE
CI-ITERATION   0: 
 -1725.373382087   0.000000000000 (    0.00)
 -1725.371881111   0.000000000000
 -1725.371812007   0.000000000000
 -1725.371006007   0.000000000000
 -1725.362560391   0.000000000000
 -1725.359378272   0.000000000000
 -1725.358667140   0.000000000000
 -1725.356674763   0.000000000000
 -1725.351803470   0.000000000000
 -1725.347674330   0.000000000000
 -1725.347204980   0.000000000000
 -1725.343264496   0.000000000000
 -1725.337882263   0.000000000000
 -1725.335312119   0.000000000000
 -1725.335249303   0.000000000000
 -1725.333068195   0.000000000000
 -1725.331477314   0.000000000000
 -1725.329941085   0.000000000000
 -1725.326345358   0.000000000000
 -1725.324820102   0.000000000000
 -1725.323108052   0.000000000000
 -1725.321642474   0.000000000000
 -1725.317807452   0.000000000000
 -1725.314281914   0.000000000000
 -1725.311907289   0.000000000000
 -1725.306027267   0.000000000000
 -1725.305459956   0.000000000000
 -1725.302165374   0.000000000000
 -1725.274224222   0.000000000000
 -1725.267821330   0.000000000000
 -1725.254982787   0.000000000000
 -1725.251432683   0.000000000000
 -1725.250644378   0.000000000000
 -1725.249732869   0.000000000000
 -1725.249362888   0.000000000000
 -1725.179997742   0.000000000000
 -1725.171046216   0.000000000000
 -1725.169383007   0.000000000000
 -1725.136114595   0.000000000000
 -1725.126503261   0.000000000000
   CI-PROBLEM SOLVED
   DENSITIES MADE

                 <<<<<<<<<<<<<<<<<<INITIAL CI STATE CHECK>>>>>>>>>>>>>>>>>>

BLOCK  1 MULT= 4 NROOTS=10 
ROOT   0:  E=   -1725.4364765070 Eh
      0.61981 [     4]: 12121
      0.37317 [     1]: 11212
      0.00566 [     8]: 21211
ROOT   1:  E=   -1725.4347290245 Eh  0.048 eV    383.5 cm**-1
      0.57737 [     5]: 12211
      0.42212 [     0]: 11122
ROOT   2:  E=   -1725.4269016174 Eh  0.261 eV   2101.4 cm**-1
      0.48463 [     9]: 22111
      0.27470 [     2]: 11221
      0.21384 [     3]: 12112
      0.02616 [     6]: 21112
ROOT   3:  E=   -1725.4233987132 Eh  0.356 eV   2870.2 cm**-1
      0.50424 [     1]: 11212
      0.25484 [     4]: 12121
      0.12431 [     8]: 21211
      0.06481 [     7]: 21121
      0.02964 [     0]: 11122
      0.02187 [     5]: 12211
ROOT   4:  E=   -1725.4225925744 Eh  0.378 eV   3047.2 cm**-1
      0.44112 [     0]: 11122
      0.31944 [     5]: 12211
      0.11512 [     7]: 21121
      0.07840 [     8]: 21211
      0.02942 [     1]: 11212
      0.01612 [     4]: 12121
ROOT   5:  E=   -1725.4207500138 Eh  0.428 eV   3451.6 cm**-1
      0.43098 [     6]: 21112
      0.36347 [     9]: 22111
      0.14262 [     2]: 11221
      0.06255 [     3]: 12112
ROOT   6:  E=   -1725.4188243980 Eh  0.480 eV   3874.2 cm**-1
      0.54155 [     6]: 21112
      0.23149 [     2]: 11221
      0.14516 [     9]: 22111
      0.08149 [     3]: 12112
ROOT   7:  E=   -1725.3662215930 Eh  1.912 eV  15419.2 cm**-1
      0.64144 [     3]: 12112
      0.35051 [     2]: 11221
      0.00607 [     9]: 22111
ROOT   8:  E=   -1725.3535945372 Eh  2.255 eV  18190.5 cm**-1
      0.79140 [     8]: 21211
      0.09450 [     4]: 12121
      0.08091 [     1]: 11212
      0.01870 [     0]: 11122
      0.01425 [     5]: 12211
ROOT   9:  E=   -1725.3382169010 Eh  2.674 eV  21565.5 cm**-1
      0.81836 [     7]: 21121
      0.08791 [     0]: 11122
      0.06657 [     5]: 12211
      0.01454 [     4]: 12121
      0.01207 [     1]: 11212

BLOCK  2 MULT= 2 NROOTS=40 
ROOT   0:  E=   -1725.3733820870 Eh
      0.86814 [     3]: 02221
      0.06132 [    18]: 21112
      0.02927 [    16]: 20221
      0.01640 [    28]: 22201
      0.01374 [    24]: 22021
      0.00434 [     0]: 01222
      0.00326 [     9]: 12112
ROOT   1:  E=   -1725.3718811107 Eh  0.041 eV    329.4 cm**-1
      0.78806 [     0]: 01222
      0.12271 [    26]: 22111
      0.03716 [    22]: 21220
      0.01861 [     9]: 12112
      0.01635 [    20]: 21202
      0.00840 [    17]: 21022
      0.00593 [     3]: 02221
ROOT   2:  E=   -1725.3718120074 Eh  0.043 eV    344.6 cm**-1
      0.71755 [    12]: 12211
      0.10946 [     6]: 11212
      0.04911 [     1]: 02122
      0.03652 [     5]: 11122
      0.02272 [     2]: 02212
      0.01102 [    15]: 20212
      0.01087 [    10]: 12121
      0.00875 [    21]: 21211
      0.00661 [    27]: 22120
      0.00651 [    23]: 22012
      0.00633 [    19]: 21121
      0.00520 [    25]: 22102
      0.00494 [    14]: 20122
      0.00379 [    29]: 22210
ROOT   3:  E=   -1725.3710060074 Eh  0.065 eV    521.5 cm**-1
      0.66713 [     6]: 11212
      0.12597 [    12]: 12211
      0.05359 [    10]: 12121
      0.05217 [     1]: 02122
      0.02771 [     2]: 02212
      0.01430 [    27]: 22120
      0.01075 [    21]: 21211
      0.01048 [    29]: 22210
      0.00843 [     5]: 11122
      0.00814 [    23]: 22012
      0.00758 [    15]: 20212
      0.00555 [    25]: 22102
      0.00554 [    19]: 21121
ROOT   4:  E=   -1725.3625603911 Eh  0.294 eV   2375.1 cm**-1
      0.67980 [    10]: 12121
      0.15124 [     1]: 02122
      0.08738 [     6]: 11212
      0.02346 [    14]: 20122
      0.01827 [    21]: 21211
      0.01758 [     5]: 11122
      0.00629 [    15]: 20212
      0.00505 [    19]: 21121
      0.00457 [     2]: 02212
      0.00374 [    12]: 12211
ROOT   5:  E=   -1725.3593782723 Eh  0.381 eV   3073.5 cm**-1
      0.58344 [     5]: 11122
      0.11973 [    12]: 12211
      0.11416 [     2]: 02212
      0.08745 [    29]: 22210
      0.02085 [    10]: 12121
      0.01584 [    23]: 22012
      0.01515 [    19]: 21121
      0.01477 [     1]: 02122
      0.00923 [    27]: 22120
      0.00856 [    21]: 21211
      0.00693 [     6]: 11212
      0.00287 [    15]: 20212
ROOT   6:  E=   -1725.3586671401 Eh  0.400 eV   3229.6 cm**-1
      0.36352 [    18]: 21112
      0.29746 [    26]: 22111
      0.10931 [     8]: 12022
      0.07517 [    13]: 12220
      0.04990 [    11]: 12202
      0.02971 [     0]: 01222
      0.02489 [     9]: 12112
      0.01732 [     7]: 11221
      0.01651 [     4]: 10222
      0.00762 [     3]: 02221
      0.00624 [    24]: 22021
ROOT   7:  E=   -1725.3566747632 Eh  0.455 eV   3666.8 cm**-1
      0.28754 [     9]: 12112
      0.27955 [    26]: 22111
      0.25335 [    18]: 21112
      0.05936 [     0]: 01222
      0.04196 [    13]: 12220
      0.01936 [    17]: 21022
      0.01768 [     7]: 11221
      0.01710 [     8]: 12022
      0.01311 [     3]: 02221
      0.00762 [    11]: 12202
ROOT   8:  E=   -1725.3518034697 Eh  0.587 eV   4736.0 cm**-1
      0.32086 [     6]: 11212
      0.29751 [     1]: 02122
      0.14845 [    10]: 12121
      0.09057 [    21]: 21211
      0.07192 [    12]: 12211
      0.01963 [    25]: 22102
      0.01877 [     5]: 11122
      0.01835 [    27]: 22120
      0.00495 [    29]: 22210
      0.00340 [    19]: 21121
      0.00252 [    14]: 20122
ROOT   9:  E=   -1725.3476743303 Eh  0.700 eV   5642.2 cm**-1
      0.46380 [     9]: 12112
      0.17546 [    26]: 22111
      0.14609 [    20]: 21202
      0.11496 [     7]: 11221
      0.02757 [    13]: 12220
      0.02504 [    18]: 21112
      0.01780 [    17]: 21022
      0.01605 [    28]: 22201
      0.00429 [     0]: 01222
      0.00371 [     4]: 10222
      0.00326 [     8]: 12022
ROOT  10:  E=   -1725.3472049802 Eh  0.712 eV   5745.2 cm**-1
      0.37530 [    12]: 12211
      0.34071 [     2]: 02212
      0.06682 [    15]: 20212
      0.05781 [     5]: 11122
      0.05715 [     6]: 11212
      0.03477 [    29]: 22210
      0.02960 [    19]: 21121
      0.01318 [    10]: 12121
      0.01279 [    23]: 22012
      0.00727 [    21]: 21211
      0.00262 [    27]: 22120
ROOT  11:  E=   -1725.3432644964 Eh  0.820 eV   6610.0 cm**-1
      0.19752 [    28]: 22201
      0.19170 [    18]: 21112
      0.17186 [    24]: 22021
      0.15432 [     8]: 12022
      0.10878 [     4]: 10222
      0.03626 [    13]: 12220
      0.02951 [     7]: 11221
      0.02607 [    26]: 22111
      0.02036 [    20]: 21202
      0.01733 [     3]: 02221
      0.01728 [    11]: 12202
      0.01459 [    17]: 21022
      0.00520 [     9]: 12112
      0.00487 [     0]: 01222
      0.00305 [    16]: 20221
ROOT  12:  E=   -1725.3378822633 Eh  0.966 eV   7791.3 cm**-1
      0.69216 [     9]: 12112
      0.14470 [    20]: 21202
      0.05161 [     7]: 11221
      0.04226 [    17]: 21022
      0.03997 [    28]: 22201
      0.01009 [    26]: 22111
      0.00821 [    22]: 21220
      0.00462 [    24]: 22021
ROOT  13:  E=   -1725.3353121193 Eh  1.036 eV   8355.4 cm**-1
      0.77244 [    26]: 22111
      0.08413 [     7]: 11221
      0.06529 [     0]: 01222
      0.02383 [     9]: 12112
      0.02186 [    17]: 21022
      0.01651 [    13]: 12220
      0.00663 [    22]: 21220
ROOT  14:  E=   -1725.3352493027 Eh  1.038 eV   8369.2 cm**-1
      0.25393 [    10]: 12121
      0.16156 [     6]: 11212
      0.15007 [    23]: 22012
      0.11801 [    21]: 21211
      0.09229 [    29]: 22210
      0.08363 [    25]: 22102
      0.04308 [    27]: 22120
      0.03345 [     5]: 11122
      0.03047 [    12]: 12211
      0.01342 [    19]: 21121
      0.01294 [     2]: 02212
      0.00323 [    15]: 20212
      0.00304 [    14]: 20122
ROOT  15:  E=   -1725.3330681953 Eh  1.097 eV   8847.9 cm**-1
      0.34876 [    23]: 22012
      0.12681 [    15]: 20212
      0.10825 [     5]: 11122
      0.09948 [     6]: 11212
      0.08773 [    25]: 22102
      0.04930 [    21]: 21211
      0.04742 [    10]: 12121
      0.04399 [    12]: 12211
      0.03910 [    19]: 21121
      0.02014 [     2]: 02212
      0.01934 [    29]: 22210
      0.00886 [    27]: 22120
ROOT  16:  E=   -1725.3314773140 Eh  1.140 eV   9197.0 cm**-1
      0.60943 [    18]: 21112
      0.10045 [    13]: 12220
      0.08154 [     4]: 10222
      0.06989 [    24]: 22021
      0.05421 [     7]: 11221
      0.04165 [     3]: 02221
      0.02301 [    28]: 22201
      0.00515 [    16]: 20221
      0.00514 [    11]: 12202
      0.00357 [    20]: 21202
      0.00293 [     9]: 12112
ROOT  17:  E=   -1725.3299410851 Eh  1.182 eV   9534.2 cm**-1
      0.42291 [     5]: 11122
      0.15085 [    12]: 12211
      0.13691 [    29]: 22210
      0.09795 [    21]: 21211
      0.07989 [    10]: 12121
      0.02487 [    25]: 22102
      0.02335 [    19]: 21121
      0.01550 [    27]: 22120
      0.01248 [     6]: 11212
      0.01066 [    23]: 22012
      0.00821 [    14]: 20122
      0.00768 [     2]: 02212
      0.00700 [    15]: 20212
ROOT  18:  E=   -1725.3263453578 Eh  1.280 eV  10323.4 cm**-1
      0.45044 [    25]: 22102
      0.20708 [    10]: 12121
      0.14651 [    21]: 21211
      0.10275 [     5]: 11122
      0.03097 [    29]: 22210
      0.02618 [    15]: 20212
      0.01248 [    19]: 21121
      0.00802 [    23]: 22012
      0.00670 [    14]: 20122
      0.00293 [    12]: 12211
ROOT  19:  E=   -1725.3248201017 Eh  1.321 eV  10658.1 cm**-1
      0.33513 [    13]: 12220
      0.24540 [    18]: 21112
      0.12412 [    28]: 22201
      0.08977 [    11]: 12202
      0.07770 [     8]: 12022
      0.04939 [     4]: 10222
      0.02544 [    20]: 21202
      0.01676 [    24]: 22021
      0.01088 [    26]: 22111
      0.00641 [     3]: 02221
      0.00519 [     7]: 11221
      0.00435 [    17]: 21022
      0.00364 [     9]: 12112
      0.00281 [    22]: 21220
ROOT  20:  E=   -1725.3231080523 Eh  1.368 eV  11033.9 cm**-1
      0.45039 [     7]: 11221
      0.14196 [    26]: 22111
      0.09973 [     4]: 10222
      0.07980 [     8]: 12022
      0.05948 [    11]: 12202
      0.05284 [    24]: 22021
      0.04336 [    13]: 12220
      0.03064 [    28]: 22201
      0.02245 [    20]: 21202
      0.00912 [     9]: 12112
      0.00717 [    16]: 20221
ROOT  21:  E=   -1725.3216424736 Eh  1.408 eV  11355.5 cm**-1
      0.31019 [     7]: 11221
      0.18403 [    28]: 22201
      0.12445 [    13]: 12220
      0.12070 [    11]: 12202
      0.08727 [    18]: 21112
      0.06178 [     8]: 12022
      0.04821 [     4]: 10222
      0.02935 [    20]: 21202
      0.01496 [    26]: 22111
      0.01304 [    16]: 20221
      0.00270 [    22]: 21220
ROOT  22:  E=   -1725.3178074522 Eh  1.512 eV  12197.2 cm**-1
      0.30121 [    27]: 22120
      0.21318 [     6]: 11212
      0.16329 [    10]: 12121
      0.10196 [    21]: 21211
      0.07823 [     1]: 02122
      0.06928 [    14]: 20122
      0.02717 [    25]: 22102
      0.01984 [     5]: 11122
      0.01700 [    12]: 12211
      0.00395 [    23]: 22012
ROOT  23:  E=   -1725.3142819144 Eh  1.608 eV  12971.0 cm**-1
      0.27710 [     5]: 11122
      0.22927 [    23]: 22012
      0.13311 [    12]: 12211
      0.10174 [     2]: 02212
      0.09423 [    19]: 21121
      0.05653 [    15]: 20212
      0.04428 [    29]: 22210
      0.02643 [     6]: 11212
      0.01948 [    21]: 21211
      0.01395 [    10]: 12121
      0.00264 [    27]: 22120
ROOT  24:  E=   -1725.3119072889 Eh  1.673 eV  13492.2 cm**-1
      0.29955 [    17]: 21022
      0.27417 [    20]: 21202
      0.19609 [     7]: 11221
      0.06470 [     9]: 12112
      0.04384 [    28]: 22201
      0.03733 [    24]: 22021
      0.03290 [    26]: 22111
      0.02127 [     4]: 10222
      0.01533 [    13]: 12220
      0.01096 [    18]: 21112
ROOT  25:  E=   -1725.3060272672 Eh  1.833 eV  14782.7 cm**-1
      0.36491 [    19]: 21121
      0.32675 [    15]: 20212
      0.21822 [    29]: 22210
      0.03148 [    12]: 12211
      0.02067 [     5]: 11122
      0.01086 [    10]: 12121
      0.00973 [     2]: 02212
      0.00743 [    21]: 21211
      0.00323 [    14]: 20122
      0.00298 [     6]: 11212
ROOT  26:  E=   -1725.3054599561 Eh  1.848 eV  14907.2 cm**-1
      0.49901 [    21]: 21211
      0.26438 [    14]: 20122
      0.08465 [    27]: 22120
      0.05770 [     6]: 11212
      0.03037 [     5]: 11122
      0.01951 [    10]: 12121
      0.01900 [     1]: 02122
      0.00857 [    19]: 21121
      0.00500 [    25]: 22102
      0.00424 [    29]: 22210
ROOT  27:  E=   -1725.3021653742 Eh  1.938 eV  15630.3 cm**-1
      0.43113 [     4]: 10222
      0.20773 [    24]: 22021
      0.09974 [    11]: 12202
      0.07732 [    13]: 12220
      0.05856 [    28]: 22201
      0.04164 [    17]: 21022
      0.04142 [    18]: 21112
      0.01359 [    20]: 21202
      0.01090 [    26]: 22111
      0.00584 [     8]: 12022
      0.00532 [    16]: 20221
      0.00415 [     7]: 11221
ROOT  28:  E=   -1725.2742242223 Eh  2.698 eV  21762.6 cm**-1
      0.55132 [    21]: 21211
      0.16312 [     1]: 02122
      0.16307 [    25]: 22102
      0.05051 [    10]: 12121
      0.03388 [     6]: 11212
      0.01146 [    14]: 20122
      0.00965 [     5]: 11122
      0.00789 [    27]: 22120
      0.00734 [    12]: 12211
ROOT  29:  E=   -1725.2678213299 Eh  2.872 eV  23167.9 cm**-1
      0.61567 [     7]: 11221
      0.18144 [     9]: 12112
      0.11278 [    20]: 21202
      0.04551 [    26]: 22111
      0.02043 [    28]: 22201
      0.01055 [    22]: 21220
      0.00922 [    18]: 21112
ROOT  30:  E=   -1725.2549827870 Eh  3.222 eV  25985.6 cm**-1
      0.33134 [    17]: 21022
      0.20506 [     9]: 12112
      0.15090 [    22]: 21220
      0.09115 [    20]: 21202
      0.08529 [    24]: 22021
      0.04648 [     7]: 11221
      0.03761 [    16]: 20221
      0.03355 [    28]: 22201
      0.00732 [    26]: 22111
      0.00329 [    18]: 21112
      0.00262 [    11]: 12202
ROOT  31:  E=   -1725.2514326830 Eh  3.318 eV  26764.8 cm**-1
      0.53379 [    19]: 21121
      0.11006 [    29]: 22210
      0.10107 [    12]: 12211
      0.09040 [     2]: 02212
      0.08023 [     5]: 11122
      0.03005 [    27]: 22120
      0.02400 [    14]: 20122
      0.02028 [    21]: 21211
      0.00326 [    15]: 20212
ROOT  32:  E=   -1725.2506443778 Eh  3.340 eV  26937.8 cm**-1
      0.23522 [    14]: 20122
      0.20392 [    27]: 22120
      0.17357 [    10]: 12121
      0.15621 [    21]: 21211
      0.09775 [    19]: 21121
      0.09390 [     6]: 11212
      0.01931 [    15]: 20212
      0.01675 [    29]: 22210
ROOT  33:  E=   -1725.2497328694 Eh  3.365 eV  27137.9 cm**-1
      0.57567 [    19]: 21121
      0.11924 [     5]: 11122
      0.09995 [    15]: 20212
      0.08558 [     2]: 02212
      0.03706 [    12]: 12211
      0.02356 [    27]: 22120
      0.01795 [    14]: 20122
      0.01589 [    21]: 21211
      0.00954 [    23]: 22012
      0.00691 [    29]: 22210
      0.00438 [    10]: 12121
      0.00263 [     6]: 11212
ROOT  34:  E=   -1725.2493628879 Eh  3.375 eV  27219.1 cm**-1
      0.26478 [    11]: 12202
      0.19022 [    24]: 22021
      0.13978 [    28]: 22201
      0.12111 [     8]: 12022
      0.12030 [    16]: 20221
      0.06681 [    17]: 21022
      0.04354 [    22]: 21220
      0.03472 [    20]: 21202
      0.01021 [    18]: 21112
ROOT  35:  E=   -1725.1799977423 Eh  5.262 eV  42443.0 cm**-1
      0.34558 [     8]: 12022
      0.27767 [    11]: 12202
      0.13323 [     4]: 10222
      0.10508 [    13]: 12220
      0.04332 [    18]: 21112
      0.03573 [    24]: 22021
      0.02087 [    28]: 22201
      0.01468 [    16]: 20221
      0.00746 [    26]: 22111
      0.00659 [    17]: 21022
      0.00477 [    20]: 21202
      0.00472 [    22]: 21220
ROOT  36:  E=   -1725.1710462164 Eh  5.506 eV  44407.6 cm**-1
      0.31487 [    14]: 20122
      0.22225 [    27]: 22120
      0.16845 [     1]: 02122
      0.12134 [    25]: 22102
      0.06907 [    21]: 21211
      0.04319 [    10]: 12121
      0.03785 [     6]: 11212
      0.00578 [     5]: 11122
      0.00335 [    29]: 22210
      0.00301 [    23]: 22012
      0.00282 [    15]: 20212
      0.00269 [    19]: 21121
      0.00267 [    12]: 12211
ROOT  37:  E=   -1725.1693830066 Eh  5.551 eV  44772.6 cm**-1
      0.22889 [    15]: 20212
      0.18974 [    23]: 22012
      0.17222 [    29]: 22210
      0.16565 [    19]: 21121
      0.15494 [     2]: 02212
      0.04500 [     5]: 11122
      0.02432 [    12]: 12211
      0.00565 [    14]: 20122
      0.00289 [    10]: 12121
ROOT  38:  E=   -1725.1361145952 Eh  6.456 eV  52074.2 cm**-1
      0.72871 [    22]: 21220
      0.11906 [    17]: 21022
      0.05711 [    20]: 21202
      0.03997 [    26]: 22111
      0.03920 [     0]: 01222
      0.00940 [     9]: 12112
      0.00364 [     8]: 12022
ROOT  39:  E=   -1725.1265032609 Eh  6.718 eV  54183.6 cm**-1
      0.75567 [    16]: 20221
      0.10352 [    24]: 22021
      0.04760 [    28]: 22201
      0.03858 [    18]: 21112
      0.03523 [     3]: 02221
      0.01453 [     8]: 12022

                 <<<<<<<<<<<<<<<<<<INITIAL CI STATE CHECK>>>>>>>>>>>>>>>>>>

   E(CAS)= -1725.352748426 Eh DE=    0.000000e+00
   --- Energy gap subspaces: Ext-Act = 1.381   Act-Int = -0.030
   --- current l-shift: Up(Ext-Act) = 1.00   Dn(Act-Int) = 2.03
   N(occ)=  1.40000 1.40000 1.40000 1.40000 1.40000
   ||g|| =     1.219397e+02 Max(G)=    1.102199e+02 Rot=265,0
   --- Option=FreezeIE: ||g|| =    121.937091129 
                              = 100.00% 
                        Damping (0.029) elements outside Int-Ext
   --- Orbital Update [   SuperCI]
   SUPERCI-ITER   0: DE=    -0.264390431 <r|r>=      0.007862133
   SUPERCI-ITER   1: DE=    -0.001129202 <r|r>=      0.014814837
   SUPERCI-ITER   2: DE=    -0.000183344 <r|r>=      0.009212892
   SUPERCI-ITER   3: DE=    -0.000039704 <r|r>=      0.000054510
   SUPERCI-ITER   4: DE=    -0.000003340 <r|r>=      0.000021353
   SUPERCI-ITER   5: DE=    -0.000000592 <r|r>=      0.000002322
   SUPERCI-ITER   6: DE=    -0.000000135 <r|r>=      0.000002138
   SUPERCI-ITER   7: DE=    -0.000000028 <r|r>=      0.000000026
   SUPERCI-ITER   8: DE=    -0.000000003 <r|r>=      0.000000096
   SUPERCI-ITER   9: DE=    -0.000000001 
   <Psi(SX)|Psi(SX)>=      1.000000000 DE(SX)=-0.265746780
   Largest coefficient in the normalized |SX> wavefunction= 0.020920925
   --- Forming Natural Orbitals

MACRO-ITERATION   2: 
   --- Canonicalize Internal Space
   --- Canonicalize External Space
   --- Inactive Energy E0 = -1705.45946260 Eh
CI-ITERATION   0: 
 -1726.416853460   0.000000000000 (    0.00)
 -1726.414542568   0.000000000000
 -1726.403645986   0.000000000000
 -1726.396269041   0.000000000000
 -1726.393117071   0.000000000000
 -1726.392756476   0.000000000000
 -1726.391392423   0.000000000000
 -1726.336826441   0.000000000000
 -1726.325830002   0.000000000000
 -1726.325561838   0.000000000000
   CI-PROBLEM SOLVED
   DENSITIES MADE
CI-ITERATION   0: 
 -1726.351767912   0.000000000000 (    0.00)
 -1726.350919729   0.000000000000
 -1726.346141073   0.000000000000
 -1726.339828123   0.000000000000
 -1726.339114022   0.000000000000
 -1726.338306938   0.000000000000
 -1726.334103102   0.000000000000
 -1726.328043315   0.000000000000
 -1726.327195973   0.000000000000
 -1726.321762226   0.000000000000
 -1726.317479628   0.000000000000
 -1726.314829026   0.000000000000
 -1726.311258571   0.000000000000
 -1726.310186573   0.000000000000
 -1726.309790695   0.000000000000
 -1726.308778474   0.000000000000
 -1726.304897355   0.000000000000
 -1726.304153268   0.000000000000
 -1726.302034050   0.000000000000
 -1726.300566831   0.000000000000
 -1726.295972219   0.000000000000
 -1726.288784177   0.000000000000
 -1726.288114211   0.000000000000
 -1726.287246743   0.000000000000
 -1726.284899841   0.000000000000
 -1726.284781233   0.000000000000
 -1726.284097879   0.000000000000
 -1726.278867755   0.000000000000
 -1726.244606914   0.000000000000
 -1726.243881016   0.000000000000
 -1726.232646208   0.000000000000
 -1726.232374579   0.000000000000
 -1726.231962908   0.000000000000
 -1726.229982122   0.000000000000
 -1726.220661763   0.000000000000
 -1726.150380030   0.000000000000
 -1726.148445574   0.000000000000
 -1726.141252645   0.000000000000
 -1726.122069089   0.000000000000
 -1726.113945645   0.000000000000
   CI-PROBLEM SOLVED
   DENSITIES MADE
   E(CAS)= -1726.328166383 Eh DE=   -9.754180e-01
   --- Energy gap subspaces: Ext-Act = 0.492   Act-Int = -0.074
   --- current l-shift: Up(Ext-Act) = 1.01   Dn(Act-Int) = 1.57
   N(occ)=  1.40000 1.40000 1.40000 1.40000 1.40000
   ||g|| =     3.630519e+01 Max(G)=    3.286852e+01 Rot=265,0
   --- Option=FreezeIE: ||g|| =     36.297748956 
                              = 99.98% 
                        Damping (0.029) elements outside Int-Ext
   --- Orbital Update [   SuperCI]
   SUPERCI-ITER   0: DE=    -0.025262873 <r|r>=      0.000004059
   SUPERCI-ITER   1: DE=    -0.000003173 <r|r>=      0.000083229
   Warning: Orthogonalization failed (2e-16)! Terminating Iterations.
   Warning: Super-CI convergence failure - keeping first order |SX> wavefunction
   <Psi(SX)|Psi(SX)>=      1.000000000 DE(SX)=-0.025266046
   Largest coefficient in the normalized |SX> wavefunction= 0.013098916
   --- Forming Natural Orbitals

MACRO-ITERATION   3: 
   --- Canonicalize Internal Space
   --- Canonicalize External Space
   --- Inactive Energy E0 = -1705.58474753 Eh
CI-ITERATION   0: 
 -1726.514981370   0.000000000000 (    0.00)
 -1726.512956075   0.000000000000
 -1726.501031572   0.000000000000
 -1726.491600613   0.000000000000
 -1726.488223553   0.000000000000
 -1726.487449109   0.000000000000
 -1726.486599567   0.000000000000
 -1726.432237475   0.000000000000
 -1726.423866238   0.000000000000
 -1726.420491806   0.000000000000
   CI-PROBLEM SOLVED
   DENSITIES MADE
CI-ITERATION   0: 
 -1726.449226678   0.000000000000 (    0.00)
 -1726.448558424   0.000000000000
 -1726.444179721   0.000000000000
 -1726.437508023   0.000000000000
 -1726.434677685   0.000000000000
 -1726.433373988   0.000000000000
 -1726.431239285   0.000000000000
 -1726.424297876   0.000000000000
 -1726.423395679   0.000000000000
 -1726.418781125   0.000000000000
 -1726.413498036   0.000000000000
 -1726.410838624   0.000000000000
 -1726.407429435   0.000000000000
 -1726.406716058   0.000000000000
 -1726.406459602   0.000000000000
 -1726.404822881   0.000000000000
 -1726.400698051   0.000000000000
 -1726.399469750   0.000000000000
 -1726.397784058   0.000000000000
 -1726.395879744   0.000000000000
 -1726.392145142   0.000000000000
 -1726.384671494   0.000000000000
 -1726.383155193   0.000000000000
 -1726.381996969   0.000000000000
 -1726.381958702   0.000000000000
 -1726.381164976   0.000000000000
 -1726.380878371   0.000000000000
 -1726.371148026   0.000000000000
 -1726.341172792   0.000000000000
 -1726.338612818   0.000000000000
 -1726.329903017   0.000000000000
 -1726.328901314   0.000000000000
 -1726.328405008   0.000000000000
 -1726.324680046   0.000000000000
 -1726.316610602   0.000000000000
 -1726.246604396   0.000000000000
 -1726.242556310   0.000000000000
 -1726.236013734   0.000000000000
 -1726.219298610   0.000000000000
 -1726.211558928   0.000000000000
   CI-PROBLEM SOLVED
   DENSITIES MADE
   E(CAS)= -1726.424350259 Eh DE=   -9.618388e-02
   --- Energy gap subspaces: Ext-Act = 0.488   Act-Int = -0.059
   --- current l-shift: Up(Ext-Act) = 0.85   Dn(Act-Int) = 1.39
   N(occ)=  1.40000 1.40000 1.40000 1.40000 1.40000
   ||g|| =     1.076911e+01 Max(G)=    9.739497e+00 Rot=265,0
   --- Option=FreezeIE: ||g|| =     10.745105740 
                              = 99.78% 
                        Damping (0.029) elements outside Int-Ext
   --- Orbital Update [   SuperCI]
   SUPERCI-ITER   0: DE=    -0.002651457 <r|r>=      0.000000832
   SUPERCI-ITER   1: DE=    -0.000000799 <r|r>=      0.000001118
   Warning: Orthogonalization failed (-5e-17)! Terminating Iterations.
   Warning: Super-CI convergence failure - keeping first order |SX> wavefunction
   <Psi(SX)|Psi(SX)>=      1.000000000 DE(SX)=-0.002652256
   Largest coefficient in the normalized |SX> wavefunction= 0.006919087
   --- Forming Natural Orbitals

MACRO-ITERATION   4: 
   --- Canonicalize Internal Space
   --- Canonicalize External Space
   --- Inactive Energy E0 = -1705.56803803 Eh
CI-ITERATION   0: 
 -1726.527662897   0.000000000000 (    0.00)
 -1726.525744526   0.000000000000
 -1726.513617835   0.000000000000
 -1726.504020243   0.000000000000
 -1726.500453893   0.000000000000
 -1726.499789375   0.000000000000
 -1726.498904002   0.000000000000
 -1726.444776936   0.000000000000
 -1726.436310471   0.000000000000
 -1726.432325119   0.000000000000
   CI-PROBLEM SOLVED
   DENSITIES MADE
CI-ITERATION   0: 
 -1726.461698220   0.000000000000 (    0.00)
 -1726.461114444   0.000000000000
 -1726.456780831   0.000000000000
 -1726.450123704   0.000000000000
 -1726.446903597   0.000000000000
 -1726.445515554   0.000000000000
 -1726.443698028   0.000000000000
 -1726.436771244   0.000000000000
 -1726.435442352   0.000000000000
 -1726.431153437   0.000000000000
 -1726.425940723   0.000000000000
 -1726.423308505   0.000000000000
 -1726.419624738   0.000000000000
 -1726.418921439   0.000000000000
 -1726.418607320   0.000000000000
 -1726.417000066   0.000000000000
 -1726.412994368   0.000000000000
 -1726.411709476   0.000000000000
 -1726.409977844   0.000000000000
 -1726.408086887   0.000000000000
 -1726.404405521   0.000000000000
 -1726.396871825   0.000000000000
 -1726.395657623   0.000000000000
 -1726.394571814   0.000000000000
 -1726.394081430   0.000000000000
 -1726.393356339   0.000000000000
 -1726.393159647   0.000000000000
 -1726.383779187   0.000000000000
 -1726.353364985   0.000000000000
 -1726.350670424   0.000000000000
 -1726.342246727   0.000000000000
 -1726.340864237   0.000000000000
 -1726.340376138   0.000000000000
 -1726.336808633   0.000000000000
 -1726.329122419   0.000000000000
 -1726.258613238   0.000000000000
 -1726.254790840   0.000000000000
 -1726.247795608   0.000000000000
 -1726.231163999   0.000000000000
 -1726.223607218   0.000000000000
   CI-PROBLEM SOLVED
   DENSITIES MADE
   E(CAS)= -1726.436688773 Eh DE=   -1.233851e-02
   --- Energy gap subspaces: Ext-Act = 0.487   Act-Int = -0.057
   --- current l-shift: Up(Ext-Act) = 0.51   Dn(Act-Int) = 1.06
   N(occ)=  1.40000 1.40000 1.40000 1.40000 1.40000
   ||g|| =     3.258156e+00 Max(G)=    2.880380e+00 Rot=265,0
   --- Option=FreezeIE: ||g|| =      3.180221080 
                              = 97.61% 
                        Damping (0.029) elements outside Int-Ext
   --- Orbital Update [   SuperCI]
   SUPERCI-ITER   0: DE=    -0.000378660 <r|r>=      0.000000379
   SUPERCI-ITER   1: DE=    -0.000000337 <r|r>=      0.000005135
   Warning: Orthogonalization failed (-6e-19)! Terminating Iterations.
   Warning: Super-CI convergence failure - keeping first order |SX> wavefunction
   <Psi(SX)|Psi(SX)>=      1.000000000 DE(SX)=-0.000378997
   Largest coefficient in the normalized |SX> wavefunction= 0.004600420
   --- Forming Natural Orbitals

MACRO-ITERATION   5: 
   --- Canonicalize Internal Space
   --- Canonicalize External Space
   --- Inactive Energy E0 = -1705.53761572 Eh
CI-ITERATION   0: 
 -1726.531438136   0.000000000000 (    0.00)
 -1726.529611573   0.000000000000
 -1726.517419016   0.000000000000
 -1726.507874798   0.000000000000
 -1726.504158829   0.000000000000
 -1726.503640430   0.000000000000
 -1726.502681929   0.000000000000
 -1726.448678911   0.000000000000
 -1726.439928882   0.000000000000
 -1726.435688260   0.000000000000
   CI-PROBLEM SOLVED
   DENSITIES MADE
CI-ITERATION   0: 
 -1726.465278686   0.000000000000 (    0.00)
 -1726.464774085   0.000000000000
 -1726.460438025   0.000000000000
 -1726.453856805   0.000000000000
 -1726.450494128   0.000000000000
 -1726.449073396   0.000000000000
 -1726.447336402   0.000000000000
 -1726.440402586   0.000000000000
 -1726.438873783   0.000000000000
 -1726.434779933   0.000000000000
 -1726.429695758   0.000000000000
 -1726.427064737   0.000000000000
 -1726.423128091   0.000000000000
 -1726.422424058   0.000000000000
 -1726.422040737   0.000000000000
 -1726.420550591   0.000000000000
 -1726.416629637   0.000000000000
 -1726.415364102   0.000000000000
 -1726.413547447   0.000000000000
 -1726.411720307   0.000000000000
 -1726.408021438   0.000000000000
 -1726.400455330   0.000000000000
 -1726.399580128   0.000000000000
 -1726.398337619   0.000000000000
 -1726.397762369   0.000000000000
 -1726.397004341   0.000000000000
 -1726.396835938   0.000000000000
 -1726.388212748   0.000000000000
 -1726.356820838   0.000000000000
 -1726.354175165   0.000000000000
 -1726.345819959   0.000000000000
 -1726.344150401   0.000000000000
 -1726.343673806   0.000000000000
 -1726.340462869   0.000000000000
 -1726.332998352   0.000000000000
 -1726.261932934   0.000000000000
 -1726.258518721   0.000000000000
 -1726.251025117   0.000000000000
 -1726.234313470   0.000000000000
 -1726.226924173   0.000000000000
   CI-PROBLEM SOLVED
   DENSITIES MADE
   E(CAS)= -1726.440362276 Eh DE=   -3.673503e-03
   --- Energy gap subspaces: Ext-Act = 0.487   Act-Int = -0.056
   --- current l-shift: Up(Ext-Act) = 0.51   Dn(Act-Int) = 1.06
   N(occ)=  1.40000 1.40000 1.40000 1.40000 1.40000
   ||g|| =     1.182294e+00 Max(G)=    8.515014e-01 Rot=265,0
   --- Orbital Update [   SuperCI]
   SUPERCI-ITER   0: DE=    -0.017769573 <r|r>=      0.000217588
   SUPERCI-ITER   1: DE=    -0.000123481 <r|r>=      0.000049939
   SUPERCI-ITER   2: DE=    -0.000017255 <r|r>=      0.000000553
   SUPERCI-ITER   3: DE=    -0.000000137 <r|r>=      0.000000002
   SUPERCI-ITER   4: DE=    -0.000000000 
   <Psi(SX)|Psi(SX)>=      1.000000000 DE(SX)=-0.017910447
   Largest coefficient in the normalized |SX> wavefunction= 0.143882343
   --- Forming Natural Orbitals

MACRO-ITERATION   6: 
   --- Canonicalize Internal Space
   --- Canonicalize External Space
   --- Inactive Energy E0 = -1704.77546927 Eh
CI-ITERATION   0: 
 -1726.585266444   0.000000000000 (    0.00)
 -1726.584043069   0.000000000000
 -1726.573596347   0.000000000000
 -1726.567598185   0.000000000000
 -1726.565183212   0.000000000000
 -1726.564470818   0.000000000000
 -1726.564215362   0.000000000000
 -1726.504801965   0.000000000000
 -1726.494215928   0.000000000000
 -1726.487812338   0.000000000000
   CI-PROBLEM SOLVED
   DENSITIES MADE
CI-ITERATION   0: 
 -1726.510303972   0.000000000000 (    0.01)
 -1726.508891313   0.000000000000
 -1726.507608270   0.000000000000
 -1726.505089389   0.000000000000
 -1726.501174055   0.000000000000
 -1726.499455619   0.000000000000
 -1726.498760469   0.000000000000
 -1726.489079487   0.000000000000
 -1726.488603920   0.000000000000
 -1726.487842627   0.000000000000
 -1726.483764266   0.000000000000
 -1726.479926501   0.000000000000
 -1726.472812161   0.000000000000
 -1726.471797806   0.000000000000
 -1726.471782930   0.000000000000
 -1726.471086584   0.000000000000
 -1726.470419843   0.000000000000
 -1726.469046915   0.000000000000
 -1726.466472182   0.000000000000
 -1726.466036817   0.000000000000
 -1726.465414761   0.000000000000
 -1726.461304714   0.000000000000
 -1726.460096832   0.000000000000
 -1726.458299256   0.000000000000
 -1726.453433852   0.000000000000
 -1726.451962083   0.000000000000
 -1726.451880379   0.000000000000
 -1726.451829917   0.000000000000
 -1726.402608744   0.000000000000
 -1726.400332522   0.000000000000
 -1726.396163415   0.000000000000
 -1726.392988859   0.000000000000
 -1726.390156971   0.000000000000
 -1726.390087044   0.000000000000
 -1726.389844233   0.000000000000
 -1726.304596744   0.000000000000
 -1726.303911343   0.000000000000
 -1726.293954954   0.000000000000
 -1726.276955492   0.000000000000
 -1726.274093969   0.000000000000
   CI-PROBLEM SOLVED
   DENSITIES MADE
   E(CAS)= -1726.494433574 Eh DE=   -5.407130e-02
   --- Energy gap subspaces: Ext-Act = 0.478   Act-Int = 0.056
   --- current l-shift: Up(Ext-Act) = 0.52   Dn(Act-Int) = 0.94
   N(occ)=  1.40000 1.40000 1.40000 1.40000 1.40000
   ||g|| =     4.966994e-01 Max(G)=   -2.628052e-01 Rot=265,0
   --- Orbital Update [   SuperCI]
   SUPERCI-ITER   0: DE=    -0.007921136 <r|r>=      0.000093976
   SUPERCI-ITER   1: DE=    -0.000055455 <r|r>=      0.000006713
   SUPERCI-ITER   2: DE=    -0.000005926 <r|r>=      0.000000431
   SUPERCI-ITER   3: DE=    -0.000000224 <r|r>=      0.000000003
   SUPERCI-ITER   4: DE=    -0.000000001 <r|r>=      0.000000000
   <Psi(SX)|Psi(SX)>=      1.000000000 DE(SX)=-0.007982743
   Largest coefficient in the normalized |SX> wavefunction= 0.135618707
   --- Forming Natural Orbitals

MACRO-ITERATION   7: 
   --- Canonicalize Internal Space
   --- Canonicalize External Space
   --- Inactive Energy E0 = -1704.27414091 Eh
CI-ITERATION   0: 
 -1726.601240481   0.000000000000 (    0.00)
 -1726.601142665   0.000000000000
 -1726.591917136   0.000000000000
 -1726.591444945   0.000000000000
 -1726.590868939   0.000000000000
 -1726.590660490   0.000000000000
 -1726.589782362   0.000000000000
 -1726.526997910   0.000000000000
 -1726.508342607   0.000000000000
 -1726.507169087   0.000000000000
   CI-PROBLEM SOLVED
   DENSITIES MADE
CI-ITERATION   0: 
 -1726.523080010   0.000000000000 (    0.00)
 -1726.522271196   0.000000000000
 -1726.522201654   0.000000000000
 -1726.521689561   0.000000000000
 -1726.520552016   0.000000000000
 -1726.520171741   0.000000000000
 -1726.518802685   0.000000000000
 -1726.508628231   0.000000000000
 -1726.508626573   0.000000000000
 -1726.507814905   0.000000000000
 -1726.505391783   0.000000000000
 -1726.503708568   0.000000000000
 -1726.496219554   0.000000000000
 -1726.495946505   0.000000000000
 -1726.495435091   0.000000000000
 -1726.495288361   0.000000000000
 -1726.490269958   0.000000000000
 -1726.489631233   0.000000000000
 -1726.488721820   0.000000000000
 -1726.488662795   0.000000000000
 -1726.481937083   0.000000000000
 -1726.479345035   0.000000000000
 -1726.479326720   0.000000000000
 -1726.475313311   0.000000000000
 -1726.474096575   0.000000000000
 -1726.469186573   0.000000000000
 -1726.468647001   0.000000000000
 -1726.468646500   0.000000000000
 -1726.416642448   0.000000000000
 -1726.414806248   0.000000000000
 -1726.413581687   0.000000000000
 -1726.411841204   0.000000000000
 -1726.411669569   0.000000000000
 -1726.404384327   0.000000000000
 -1726.404356432   0.000000000000
 -1726.322733054   0.000000000000
 -1726.315517450   0.000000000000
 -1726.313335211   0.000000000000
 -1726.285465118   0.000000000000
 -1726.283968885   0.000000000000
   CI-PROBLEM SOLVED
   DENSITIES MADE
   E(CAS)= -1726.513952264 Eh DE=   -1.951869e-02
   --- Energy gap subspaces: Ext-Act = 0.446   Act-Int = 0.030
   --- current l-shift: Up(Ext-Act) = 0.55   Dn(Act-Int) = 0.97
   N(occ)=  1.40000 1.40000 1.40000 1.40000 1.40000
   ||g|| =     2.035927e-01 Max(G)=   -8.061007e-02 Rot=265,0
   --- Orbital Update [   SuperCI]
   SUPERCI-ITER   0: DE=    -0.001656036 <r|r>=      0.000013911
   SUPERCI-ITER   1: DE=    -0.000013208 <r|r>=      0.000000363
   Warning: Orthogonalization failed (-7e-17)! Terminating Iterations.
   <Psi(SX)|Psi(SX)>=      1.000000000 DE(SX)=-0.001669244
   Largest coefficient in the normalized |SX> wavefunction= 0.063780198
   --- Forming Natural Orbitals

MACRO-ITERATION   8: 
   --- Canonicalize Internal Space
   --- Canonicalize External Space
   --- Inactive Energy E0 = -1704.59189494 Eh
CI-ITERATION   0: 
 -1726.593624409   0.000000000000 (    0.00)
 -1726.593253969   0.000000000000
 -1726.582752848   0.000000000000
 -1726.581144914   0.000000000000
 -1726.579583294   0.000000000000
 -1726.579174528   0.000000000000
 -1726.579140410   0.000000000000
 -1726.517847380   0.000000000000
 -1726.502605861   0.000000000000
 -1726.498964971   0.000000000000
   CI-PROBLEM SOLVED
   DENSITIES MADE
CI-ITERATION   0: 
 -1726.517691028   0.000000000000 (    0.00)
 -1726.516586044   0.000000000000
 -1726.516455720   0.000000000000
 -1726.515189072   0.000000000000
 -1726.512766922   0.000000000000
 -1726.511790847   0.000000000000
 -1726.510866050   0.000000000000
 -1726.500409898   0.000000000000
 -1726.500352150   0.000000000000
 -1726.498277841   0.000000000000
 -1726.497936472   0.000000000000
 -1726.494388124   0.000000000000
 -1726.486650866   0.000000000000
 -1726.485932716   0.000000000000
 -1726.485358371   0.000000000000
 -1726.484115126   0.000000000000
 -1726.482449178   0.000000000000
 -1726.481980011   0.000000000000
 -1726.481733251   0.000000000000
 -1726.481153817   0.000000000000
 -1726.474124557   0.000000000000
 -1726.473898084   0.000000000000
 -1726.473521571   0.000000000000
 -1726.468925185   0.000000000000
 -1726.466136549   0.000000000000
 -1726.462226074   0.000000000000
 -1726.461454891   0.000000000000
 -1726.461443217   0.000000000000
 -1726.411599231   0.000000000000
 -1726.409433232   0.000000000000
 -1726.407670874   0.000000000000
 -1726.405491940   0.000000000000
 -1726.404857111   0.000000000000
 -1726.399144331   0.000000000000
 -1726.399049342   0.000000000000
 -1726.318655291   0.000000000000
 -1726.312207026   0.000000000000
 -1726.307260830   0.000000000000
 -1726.282827866   0.000000000000
 -1726.280469242   0.000000000000
   CI-PROBLEM SOLVED
   DENSITIES MADE
   E(CAS)= -1726.505935628 Eh DE=    8.016636e-03
   --- Energy gap subspaces: Ext-Act = 0.447   Act-Int = -0.004
   --- current l-shift: Up(Ext-Act) = 0.55   Dn(Act-Int) = 1.00
   N(occ)=  1.40000 1.40000 1.40000 1.40000 1.40000
   ||g|| =     3.062676e-01 Max(G)=   -1.367786e-01 Rot=265,0
   --- Orbital Update [   SuperCI]
   SUPERCI-ITER   0: DE=    -0.003757363 <r|r>=      0.000043035
   SUPERCI-ITER   1: DE=    -0.000116461 <r|r>=      0.000027376
   SUPERCI-ITER   2: DE=    -0.000012960 <r|r>=      0.000000341
   SUPERCI-ITER   3: DE=    -0.000000257 <r|r>=      0.000000003
   SUPERCI-ITER   4: DE=    -0.000000002 <r|r>=      0.000000000
   <Psi(SX)|Psi(SX)>=      1.000000000 DE(SX)=-0.003887043
   Largest coefficient in the normalized |SX> wavefunction= 0.075068930
   --- Forming Natural Orbitals

MACRO-ITERATION   9: 
   --- Canonicalize Internal Space
   --- Canonicalize External Space
   --- Inactive Energy E0 = -1704.12169761 Eh
CI-ITERATION   0: 
 -1726.604065971   0.000000000000 (    0.00)
 -1726.604035054   0.000000000000
 -1726.595876413   0.000000000000
 -1726.595685654   0.000000000000
 -1726.594691357   0.000000000000
 -1726.593691403   0.000000000000
 -1726.593314324   0.000000000000
 -1726.529856104   0.000000000000
 -1726.510220973   0.000000000000
 -1726.509932979   0.000000000000
   CI-PROBLEM SOLVED
   DENSITIES MADE
CI-ITERATION   0: 
 -1726.524613326   0.000000000000 (    0.00)
 -1726.524192037   0.000000000000
 -1726.523917419   0.000000000000
 -1726.523831906   0.000000000000
 -1726.523027019   0.000000000000
 -1726.522900917   0.000000000000
 -1726.521387669   0.000000000000
 -1726.511258082   0.000000000000
 -1726.511233934   0.000000000000
 -1726.511139610   0.000000000000
 -1726.507750407   0.000000000000
 -1726.506860409   0.000000000000
 -1726.499064270   0.000000000000
 -1726.498949367   0.000000000000
 -1726.498575378   0.000000000000
 -1726.498195017   0.000000000000
 -1726.492595819   0.000000000000
 -1726.492091772   0.000000000000
 -1726.490665489   0.000000000000
 -1726.490644524   0.000000000000
 -1726.484352650   0.000000000000
 -1726.480864068   0.000000000000
 -1726.480849348   0.000000000000
 -1726.477144405   0.000000000000
 -1726.476630080   0.000000000000
 -1726.471225577   0.000000000000
 -1726.471075110   0.000000000000
 -1726.471074839   0.000000000000
 -1726.417966307   0.000000000000
 -1726.416083812   0.000000000000
 -1726.415247548   0.000000000000
 -1726.413382929   0.000000000000
 -1726.413322547   0.000000000000
 -1726.405802985   0.000000000000
 -1726.405792301   0.000000000000
 -1726.322870757   0.000000000000
 -1726.315841887   0.000000000000
 -1726.314869620   0.000000000000
 -1726.285717930   0.000000000000
 -1726.284549325   0.000000000000
   CI-PROBLEM SOLVED
   DENSITIES MADE
   E(CAS)= -1726.516537992 Eh DE=   -1.060236e-02
   --- Energy gap subspaces: Ext-Act = 0.443   Act-Int = 0.027
   --- current l-shift: Up(Ext-Act) = 0.56   Dn(Act-Int) = 0.97
   N(occ)=  1.40000 1.40000 1.40000 1.40000 1.40000
   ||g|| =     1.554059e-01 Max(G)=   -4.165558e-02 Rot=265,35
   --- Orbital Update [   SuperCI]
   SUPERCI-ITER   0: DE=    -0.000827973 <r|r>=      0.000006749
   SUPERCI-ITER   1: DE=    -0.000007210 <r|r>=      0.000000177
   Warning: Orthogonalization failed (-2e-18)! Terminating Iterations.
   <Psi(SX)|Psi(SX)>=      1.000000000 DE(SX)=-0.000835183
   Largest coefficient in the normalized |SX> wavefunction= 0.035107283
   --- Forming Natural Orbitals

MACRO-ITERATION  10: 
   --- Canonicalize Internal Space
   --- Canonicalize External Space
   --- Inactive Energy E0 = -1704.27865880 Eh
CI-ITERATION   0: 
 -1726.599412991   0.000000000000 (    0.00)
 -1726.599293456   0.000000000000
 -1726.590186895   0.000000000000
 -1726.589774839   0.000000000000
 -1726.589129457   0.000000000000
 -1726.588845315   0.000000000000
 -1726.587964713   0.000000000000
 -1726.525052923   0.000000000000
 -1726.507111799   0.000000000000
 -1726.505962410   0.000000000000
   CI-PROBLEM SOLVED
   DENSITIES MADE
CI-ITERATION   0: 
 -1726.521391812   0.000000000000 (    0.00)
 -1726.520693923   0.000000000000
 -1726.520319258   0.000000000000
 -1726.520160052   0.000000000000
 -1726.519183343   0.000000000000
 -1726.518656010   0.000000000000
 -1726.517074082   0.000000000000
 -1726.506823345   0.000000000000
 -1726.506820930   0.000000000000
 -1726.506235843   0.000000000000
 -1726.503716687   0.000000000000
 -1726.501902194   0.000000000000
 -1726.494231276   0.000000000000
 -1726.493923655   0.000000000000
 -1726.493538414   0.000000000000
 -1726.493382356   0.000000000000
 -1726.488751200   0.000000000000
 -1726.487986855   0.000000000000
 -1726.486955914   0.000000000000
 -1726.486882264   0.000000000000
 -1726.480041195   0.000000000000
 -1726.477913316   0.000000000000
 -1726.477887567   0.000000000000
 -1726.473941683   0.000000000000
 -1726.472657744   0.000000000000
 -1726.467469614   0.000000000000
 -1726.467467835   0.000000000000
 -1726.467399671   0.000000000000
 -1726.415425680   0.000000000000
 -1726.413413442   0.000000000000
 -1726.412062688   0.000000000000
 -1726.410407035   0.000000000000
 -1726.410211066   0.000000000000
 -1726.403116797   0.000000000000
 -1726.403081722   0.000000000000
 -1726.320948264   0.000000000000
 -1726.314264079   0.000000000000
 -1726.312015254   0.000000000000
 -1726.284680019   0.000000000000
 -1726.282904207   0.000000000000
   CI-PROBLEM SOLVED
   DENSITIES MADE
   E(CAS)= -1726.512335969 Eh DE=    4.202023e-03
   --- Energy gap subspaces: Ext-Act = 0.446   Act-Int = -0.003
   --- current l-shift: Up(Ext-Act) = 0.55   Dn(Act-Int) = 1.00
   N(occ)=  1.40000 1.40000 1.40000 1.40000 1.40000
   ||g|| =     2.270462e-01 Max(G)=   -6.975666e-02 Rot=265,0
   --- Orbital Update [   SuperCI]
[...]
 3 106   44744.1    223.5   0.00000   0.00002   0.00000   0.00000000000109   0.00000   0.99458   0.00542
 3 107   44744.1    223.5   0.00000   0.00084   0.00000   0.00000000004294   0.00000   0.99986   0.00014
 3 108   45079.7    221.8   0.00000   0.00000   0.00000   0.00000000000000   0.00001   0.00000   0.99999
 3 109   45079.7    221.8   0.00000   0.00000   0.00000   0.00000000000000   0.00001   0.00000   0.99999
 3 110   63008.6    158.7   0.00000   0.00000   0.00000   0.00000000000001   0.00000   1.00000   0.00000
 3 111   63008.6    158.7   0.00000   0.00000   0.00000   0.00000000000001   0.00000   1.00000   0.00000
 3 112   64689.6    154.6   0.00000   0.00000   0.00000   0.00000000000002   0.00000   1.00000   0.00000
 3 113   64689.6    154.6   0.00000   0.00001   0.00000   0.00000000000039   0.00000   1.00000   0.00000
 3 114   65090.2    153.6   0.00000   0.00000   0.00000   0.00000000000001   0.00000   0.00000   1.00000
 3 115   65090.2    153.6   0.00000   0.00000   0.00000   0.00000000000001   0.00000   0.00000   1.00000
 3 116   71737.9    139.4   0.00000   0.00000   0.00000   0.00000000000002   0.00000   0.00000   1.00000
 3 117   71737.9    139.4   0.00000   0.00000   0.00000   0.00000000000002   0.00000   0.00000   1.00000
 3 118   72333.7    138.2   0.00000   0.00001   0.00000   0.00000000000052   0.00000   0.96442   0.03558
 3 119   72333.7    138.2   0.00000   0.00004   0.00000   0.00000000000210   0.00000   0.99113   0.00887

Done

                 =============================
                 AB INITIO LIGAND FIELD THEORY
                       d7 configuration
                          2 CI blocks
                         MOs 31 to 35
                 =============================

Metal/Atom center is atom 0
orbital phases =   1.0   1.0   1.0   1.0   1.0 
Metal/Atom d-orbital parts of active orbitals
Shell 15
             31        32        33        34        35
dz2     :  0.606547 -0.000003  0.000000 -0.001281  0.000015
dxz     : -0.000043  0.615405 -0.000019 -0.000001 -0.000000
dyz     :  0.000000  0.000010  0.614570 -0.000000 -0.000003
dx2y2   :  0.029210  0.000079 -0.000000  0.589461  0.000013
dxy     : -0.000318 -0.000001  0.000001  0.000563  0.615402
Shell 16
             31        32        33        34        35
dz2     :  0.406769  0.000003 -0.000000 -0.000821  0.000009
dxz     : -0.000024  0.408732  0.000009 -0.000003  0.000000
dyz     :  0.000000  0.000029  0.412168 -0.000000  0.000001
dx2y2   :  0.019626  0.000050 -0.000000  0.395263 -0.000034
dxy     : -0.000214 -0.000001  0.000004  0.000333  0.408731
Shell 17
             31        32        33        34        35
dz2     :  0.212582  0.000001  0.000000  0.003752 -0.000043
dxz     : -0.000013  0.212037  0.000026  0.000007  0.000000
dyz     :  0.000000  0.000036  0.217711  0.000000  0.000004
dx2y2   :  0.014309  0.000034 -0.000000  0.201531  0.000023
dxy     : -0.000156 -0.000000  0.000005  0.000211  0.212036
Shell 20
             31        32        33        34        35
dz2     :  0.001099 -0.000023  0.000000  0.027326 -0.000310
dxz     : -0.000023  0.002721  0.000073  0.000064 -0.000001
dyz     :  0.000000  0.000074  0.016189 -0.000000  0.000011
dx2y2   :  0.026542  0.000063 -0.000000 -0.031859  0.000391
dxy     : -0.000288 -0.000001  0.000011  0.000377  0.002717

Adjusting phases of one-electron integrals               ... done
Adjusting phases of two-electron integrals               ... done


-----------------------------------------------------------------
Computing F0s from 2-electron integrals                  ... done 
-----------------------------------------------------------------
F0   =  0.874629695 a.u. =    23.800 eV =  191959.0 cm**-1
-----------------------------------------------------------------

Preparing for fit                                        ... done
Making fit matrices                                      ... done
Calculating ab initio Hamiltonian matrices               ... 
Calculating fit matrices                                 ... done
Fitting                                                  ... done

------------------------------
AILFT MATRIX ELEMENTS (CASSCF)
--------------------------------

Ligand field one-electron matrix VLFT (a.u.) : 
Orbital          dz2        dxz        dyz        dx2-y2     dxy
  dz2         -5.800360  -0.000009   0.000000  -0.014010   0.000159 
  dxz         -0.000009  -5.786033  -0.000120  -0.000022  -0.000000 
  dyz          0.000000  -0.000120  -5.807981  -0.000000  -0.000017 
  dx2-y2      -0.014010  -0.000022  -0.000000  -5.782219  -0.000043 
  dxy          0.000159  -0.000000  -0.000017  -0.000043  -5.786033 

-------------------------------------------------
Slater-Condon Parameters (electronic repulsion) : 
-------------------------------------------------
F0dd(from 2el Ints)     =  0.874629695 a.u. =    23.800 eV =  191959.0 cm**-1 (fixed)
F2dd                    =  0.394368528 a.u. =    10.731 eV =   86553.9 cm**-1
F4dd                    =  0.251047025 a.u. =     6.831 eV =   55098.5 cm**-1
-------------------
Racah Parameters : 
-------------------
A(F0dd from 2el Ints)   =  0.846735581 a.u. =    23.041 eV =  185837.0 cm**-1
B                       =  0.005201999 a.u. =     0.142 eV =    1141.7 cm**-1
C                       =  0.019924367 a.u. =     0.542 eV =    4372.9 cm**-1
C/B                     =  3.830
-------------------------------------------------------------------------------

-----------------------------------------
The ligand field one electron eigenfunctions:
-----------------------------------------
Orbital    Energy (eV)  Energy(cm-1)      dz2        dxz        dyz        dx2-y2     dxy
    1          0.000        0.0         0.000617  -0.005463  -0.999985   0.000329  -0.000785 
    2          0.000        0.4        -0.878486  -0.000849  -0.000699  -0.477736   0.005408 
    3          0.597     4817.1        -0.000494   0.356644  -0.002679   0.010854   0.934173 
    4          0.597     4817.2        -0.001280   0.934223  -0.004825  -0.003337  -0.356639 
    5          0.908     7326.7        -0.477766  -0.001318   0.000009   0.878430  -0.009956 
Ligand field orbitals were stored in rho.casscf.lft.gbw

Calculating ligand field Hamiltonian matrices          ... done
Diagonalizing and fitting the ligand field Hamiltonian ... done
Calculating statistical parameters                     ... done

Reference energy AI-LFT =    -22.719936162 au
Reference energy AI     =    -22.719306498 au

------------------------------------------------
COMPARISON OF AB INITIO AND LIGAND FIELD RESULTS
------------------------------------------------

Block   1
---------
   AI-Root   0: E(AI)=    0.000 eV -> LF-Root   0:     0.000 eV    S= 0.986 Delta=   -0.000 eV
   AI-Root   1: E(AI)=    0.000 eV -> LF-Root   1:     0.000 eV    S= 0.987 Delta=    0.000 eV
   AI-Root   2: E(AI)=    0.228 eV -> LF-Root   2:     0.313 eV    S= 0.990 Delta=   -0.085 eV
   AI-Root   3: E(AI)=    0.228 eV -> LF-Root   3:     0.311 eV    S= 1.000 Delta=   -0.083 eV
   AI-Root   4: E(AI)=    0.243 eV -> LF-Root   4:     0.209 eV    S= 0.990 Delta=    0.034 eV
   AI-Root   5: E(AI)=    0.298 eV -> LF-Root   5:     0.267 eV    S= 0.912 Delta=    0.031 eV
   AI-Root   6: E(AI)=    0.298 eV -> LF-Root   6:     0.294 eV    S= 0.913 Delta=    0.003 eV
   AI-Root   7: E(AI)=    2.022 eV -> LF-Root   7:     1.912 eV    S= 1.000 Delta=    0.109 eV
   AI-Root   8: E(AI)=    2.667 eV -> LF-Root   8:     2.765 eV    S= 0.936 Delta=   -0.098 eV
   AI-Root   9: E(AI)=    2.667 eV -> LF-Root   9:     2.737 eV    S= 0.936 Delta=   -0.070 eV
   RMS error for this block =     0.065 eV =     526.8 cm**-1 

Block   2
---------
   AI-Root   0: E(AI)=    2.215 eV -> LF-Root   0:     2.242 eV    S= 0.991 Delta=   -0.027 eV
   AI-Root   1: E(AI)=    2.215 eV -> LF-Root   1:     2.243 eV    S= 0.999 Delta=   -0.028 eV
   AI-Root   2: E(AI)=    2.233 eV -> LF-Root   2:     2.262 eV    S= 0.933 Delta=   -0.029 eV
   AI-Root   3: E(AI)=    2.233 eV -> LF-Root   3:     2.256 eV    S= 0.933 Delta=   -0.023 eV
   AI-Root   4: E(AI)=    2.269 eV -> LF-Root   4:     2.372 eV    S= 0.997 Delta=   -0.103 eV
   AI-Root   5: E(AI)=    2.269 eV -> LF-Root   5:     2.372 eV    S= 0.996 Delta=   -0.103 eV
   AI-Root   6: E(AI)=    2.294 eV -> LF-Root   6:     2.282 eV    S= 0.991 Delta=    0.012 eV
   AI-Root   7: E(AI)=    2.550 eV -> LF-Root   7:     2.618 eV    S= 0.995 Delta=   -0.068 eV
   AI-Root   8: E(AI)=    2.568 eV -> LF-Root   8:     2.592 eV    S= 0.994 Delta=   -0.025 eV
   AI-Root   9: E(AI)=    2.568 eV -> LF-Root   9:     2.592 eV    S= 0.995 Delta=   -0.025 eV
   AI-Root  10: E(AI)=    2.650 eV -> LF-Root  10:     2.689 eV    S= 0.931 Delta=   -0.039 eV
   AI-Root  11: E(AI)=    2.650 eV -> LF-Root  11:     2.660 eV    S= 0.934 Delta=   -0.009 eV
   AI-Root  12: E(AI)=    2.868 eV -> LF-Root  12:     2.834 eV    S= 0.996 Delta=    0.033 eV
   AI-Root  13: E(AI)=    2.868 eV -> LF-Root  13:     2.835 eV    S= 0.994 Delta=    0.032 eV
   AI-Root  14: E(AI)=    2.889 eV -> LF-Root  14:     2.869 eV    S= 0.926 Delta=    0.020 eV
   AI-Root  15: E(AI)=    2.889 eV -> LF-Root  15:     2.867 eV    S= 0.929 Delta=    0.021 eV
   AI-Root  16: E(AI)=    3.107 eV -> LF-Root  16:     3.155 eV    S= 0.995 Delta=   -0.048 eV
   AI-Root  17: E(AI)=    3.107 eV -> LF-Root  17:     3.155 eV    S= 0.999 Delta=   -0.049 eV
   AI-Root  18: E(AI)=    3.136 eV -> LF-Root  18:     3.096 eV    S= 0.978 Delta=    0.040 eV
   AI-Root  19: E(AI)=    3.136 eV -> LF-Root  19:     3.096 eV    S= 0.978 Delta=    0.040 eV
   AI-Root  20: E(AI)=    3.291 eV -> LF-Root  20:     3.306 eV    S= 0.995 Delta=   -0.015 eV
   AI-Root  21: E(AI)=    3.442 eV -> LF-Root  21:     3.408 eV    S= 0.997 Delta=    0.034 eV
   AI-Root  22: E(AI)=    3.442 eV -> LF-Root  22:     3.408 eV    S= 0.997 Delta=    0.034 eV
   AI-Root  23: E(AI)=    3.559 eV -> LF-Root  23:     3.606 eV    S= 0.938 Delta=   -0.047 eV
   AI-Root  24: E(AI)=    3.559 eV -> LF-Root  24:     3.606 eV    S= 0.937 Delta=   -0.048 eV
   AI-Root  25: E(AI)=    3.661 eV -> LF-Root  25:     3.620 eV    S= 1.000 Delta=    0.042 eV
   AI-Root  26: E(AI)=    3.737 eV -> LF-Root  26:     3.809 eV    S= 0.998 Delta=   -0.071 eV
   AI-Root  27: E(AI)=    3.737 eV -> LF-Root  27:     3.809 eV    S= 0.998 Delta=   -0.071 eV
   AI-Root  28: E(AI)=    5.183 eV -> LF-Root  28:     5.211 eV    S= 1.000 Delta=   -0.028 eV
   AI-Root  29: E(AI)=    5.235 eV -> LF-Root  29:     5.280 eV    S= 0.934 Delta=   -0.045 eV
   AI-Root  30: E(AI)=    5.235 eV -> LF-Root  30:     5.278 eV    S= 0.935 Delta=   -0.043 eV
   AI-Root  31: E(AI)=    5.308 eV -> LF-Root  31:     5.340 eV    S= 0.999 Delta=   -0.032 eV
   AI-Root  32: E(AI)=    5.308 eV -> LF-Root  32:     5.340 eV    S= 1.000 Delta=   -0.032 eV
   AI-Root  33: E(AI)=    5.523 eV -> LF-Root  33:     5.558 eV    S= 0.828 Delta=   -0.035 eV
   AI-Root  34: E(AI)=    5.523 eV -> LF-Root  34:     5.558 eV    S= 0.828 Delta=   -0.035 eV
   AI-Root  35: E(AI)=    7.765 eV -> LF-Root  35:     7.686 eV    S= 1.000 Delta=    0.079 eV
   AI-Root  36: E(AI)=    7.998 eV -> LF-Root  36:     8.051 eV    S= 0.937 Delta=   -0.053 eV
   AI-Root  37: E(AI)=    7.998 eV -> LF-Root  37:     8.025 eV    S= 0.937 Delta=   -0.026 eV
   AI-Root  38: E(AI)=    8.885 eV -> LF-Root  38:     8.849 eV    S= 1.000 Delta=    0.036 eV
   AI-Root  39: E(AI)=    8.885 eV -> LF-Root  39:     8.850 eV    S= 1.000 Delta=    0.035 eV
   RMS error for this block =     0.045 eV =     366.7 cm**-1 

Total RMS error g=     0.051 eV =     407.9 cm**-1
Note: Dropped RMS error for the reference energy.

Confidence intervals (95%) computed from the square root of the
diagonal elements of the covariance matrix:
H(dz2   ,dz2   )=  0.000319479 a.u. =     0.009 eV =      70.1 cm**-1
H(dxz   ,dz2   )=  0.000270283 a.u. =     0.007 eV =      59.3 cm**-1
H(dxz   ,dxz   )=  0.000319479 a.u. =     0.009 eV =      70.1 cm**-1
H(dyz   ,dz2   )=  0.000270283 a.u. =     0.007 eV =      59.3 cm**-1
H(dyz   ,dxz   )=  0.000270283 a.u. =     0.007 eV =      59.3 cm**-1
H(dyz   ,dyz   )=  0.000319479 a.u. =     0.009 eV =      70.1 cm**-1
H(dx2-y2,dz2   )=  0.000270283 a.u. =     0.007 eV =      59.3 cm**-1
H(dx2-y2,dxz   )=  0.000270283 a.u. =     0.007 eV =      59.3 cm**-1
H(dx2-y2,dyz   )=  0.000270283 a.u. =     0.007 eV =      59.3 cm**-1
H(dx2-y2,dx2-y2)=  0.000319479 a.u. =     0.009 eV =      70.1 cm**-1
H(dxy   ,dz2   )=  0.000270283 a.u. =     0.007 eV =      59.3 cm**-1
H(dxy   ,dxz   )=  0.000270283 a.u. =     0.007 eV =      59.3 cm**-1
H(dxy   ,dyz   )=  0.000270283 a.u. =     0.007 eV =      59.3 cm**-1
H(dxy   ,dx2-y2)=  0.000270283 a.u. =     0.007 eV =      59.3 cm**-1
H(dxy   ,dxy   )=  0.000319479 a.u. =     0.009 eV =      70.1 cm**-1
F2dd            =  0.001147308 a.u. =     0.031 eV =     251.8 cm**-1
F4dd            =  0.001664003 a.u. =     0.045 eV =     365.2 cm**-1
Pearson's correlation coefficient =    1.000 (should be close to 1)

----------------------------------------------
SPIN ORBIT COUPLING (based on CASSCF orbitals)
----------------------------------------------

AI-SOC-X integrals (cm-1)
                  0          1          2          3          4    
      0       0.000000   0.286172 904.965186  -0.000324  -0.045196
      1      -0.286172  -0.000000   0.060997   0.506827 519.141827
      2     -904.965186  -0.060997  -0.000000 -492.168634  -0.064887
      3       0.000324  -0.506827 492.168634   0.000000   0.000577
      4       0.045196 -519.141827   0.064887  -0.000577   0.000000
AI-SOC-Y integrals (cm-1)
                  0          1          2          3          4    
      0      -0.000000 -856.350990  -0.243979   0.033687  -0.000098
      1     856.350990   0.000000  -0.000332 -494.362597  -0.040127
      2       0.243979   0.000332   0.000000  -0.472362 -516.103149
      3      -0.033687 494.362597   0.472362  -0.000000  -0.000040
      4       0.000098   0.040127 516.103149   0.000040   0.000000
AI-SOC-Z integrals (cm-1)
                  0          1          2          3          4    
      0      -0.000000   0.000218   0.037735  -0.571722 -50.430367
      1      -0.000218  -0.000000 -516.106101  -0.001540  -0.136183
      2      -0.037735 516.106101   0.000000   0.003404   0.000620
      3       0.571722   0.001540  -0.003404  -0.000000 -987.513240
      4      50.430367   0.136183  -0.000620 987.513240   0.000000

Fit to the SOC matrix elements
a = 15.000000
b =     0.938 eV =    7563.6 cm**-1
SOC constant zeta =     0.063 eV =     504.2 cm**-1


LF-SOC-X integrals (cm-1)
                  0          1          2          3          4    
      0       0.000000  -0.000000 873.369056  -0.000000  -0.000000
      1       0.000000   0.000000  -0.000000  -0.000000 504.239860
      2     -873.369056   0.000000   0.000000 -504.239860  -0.000000
      3       0.000000   0.000000 504.239860   0.000000  -0.000000
      4       0.000000 -504.239860   0.000000   0.000000   0.000000
LF-SOC-Y integrals (cm-1)
                  0          1          2          3          4    
      0       0.000000 -873.369056  -0.000000  -0.000000  -0.000000
      1     873.369056   0.000000  -0.000000 -504.239860  -0.000000
      2       0.000000   0.000000   0.000000  -0.000000 -504.239860
      3       0.000000 504.239860   0.000000   0.000000  -0.000000
      4       0.000000   0.000000 504.239860   0.000000   0.000000
LF-SOC-Z integrals (cm-1)
                  0          1          2          3          4    
      0       0.000000  -0.000000  -0.000000  -0.000000  -0.000000
      1       0.000000   0.000000 -504.239860  -0.000000  -0.000000
      2       0.000000 504.239860   0.000000  -0.000000  -0.000000
      3       0.000000   0.000000   0.000000   0.000000 -1008.479719
      4       0.000000   0.000000   0.000000 1008.479719   0.000000

RMS error of nonzero matrix elements =   18.3 cm**-1


-----SOC-CONSTANTS-----
---All Values in cm-1---
ZETA_D = 504.24 
------------------------




---AILFT COMPLETED SUCCESFULLY!---

--------------
CASSCF TIMINGS
--------------

Total time                       ...      149.7 sec
Sum of individual times          ...      147.7 sec ( 98.7%)

Calculation of AO operators
   F(Core) operator              ...       59.5 sec ( 39.7%)
   G(Act) operator               ...       58.5 sec ( 39.1%)
   J(AO) operators               ...        0.0 sec (  0.0%)
Calculation of MO transformed quantities
   J(MO) operators               ...        8.9 sec (  5.9%)
   (pq|rs) integrals             ...        0.0 sec (  0.0%)
   AO->MO one electron integrals ...        0.3 sec (  0.2%)
Configuration interaction steps
   CI-setup phase                ...        0.0 sec (  0.0%)
   CI-solution phase             ...        1.2 sec (  0.8%)
   Generation of densities       ...        0.1 sec (  0.1%)
Orbital improvement steps
   Orbital gradient              ...        0.2 sec (  0.1%)
   O(1) converger                ...        1.3 sec (  0.9%)
Properties                       ...       11.4 sec (  7.6%)
   SOC integral calculation      ...        6.3 sec (  4.2%)
   SSC RMEs (incl. integrals)    ...        0.0 sec (  0.0%)
   SOC RMEs                      ...        0.1 sec (  0.0%)

Maximum memory used throughout the entire CASSCF-calculation: 287.3 MB

-------------------------   --------------------
FINAL SINGLE POINT ENERGY     -1726.520195089409
-------------------------   --------------------


                            ***************************************
                            *     ORCA property calculations      *
                            ***************************************

                                    ---------------------
                                    Active property flags
                                    ---------------------
   (+) Dipole Moment


------------------------------------------------------------------------------
                       ORCA ELECTRIC PROPERTIES CALCULATION
------------------------------------------------------------------------------

Dipole Moment Calculation                       ... on
Quadrupole Moment Calculation                   ... off
Polarizability Calculation                      ... off
GBWName                                         ... rho.gbw
Electron density                                ... rho.scfp
The origin for moment calculation is the CENTER OF MASS  = (-0.000000, -0.000021  0.000149)

-------------
DIPOLE MOMENT
-------------
                                X             Y             Z
Electronic contribution:     -0.00000       0.00001      -0.00005
Nuclear contribution   :     -0.00000      -0.00001       0.00005
                        -----------------------------------------
Total Dipole Moment    :     -0.00000       0.00000      -0.00001
                        -----------------------------------------
Magnitude (a.u.)       :      0.00001
Magnitude (Debye)      :      0.00002



--------------------
Rotational spectrum 
--------------------
 
Rotational constants in cm-1: 75234813.967193     0.019584     0.019584 
Rotational constants in MHz : 2255482980639.758301   587.122777   587.122777 

 Dipole components along the rotational axes: 
x,y,z [a.u.] :    -0.000000     0.000001    -0.000007 
x,y,z [Debye]:    -0.000000     0.000003    -0.000017 

 

Timings for individual modules:

Sum of individual times         ...      169.562 sec (=   2.826 min)
GTO integral calculation        ...        3.960 sec (=   0.066 min)   2.3 %
Relativistic integrals          ...        3.552 sec (=   0.059 min)   2.1 %
SCF iterations                  ...        3.636 sec (=   0.061 min)   2.1 %
CASSCF iterations               ...      158.414 sec (=   2.640 min)  93.4 %
                             ****ORCA TERMINATED NORMALLY****
TOTAL RUN TIME: 0 days 0 hours 2 minutes 53 seconds 966 msec
