
                                 *****************
                                 * O   R   C   A *
                                 *****************

                                            #,                                       
                                            ###                                      
                                            ####                                     
                                            #####                                    
                                            ######                                   
                                           ########,                                 
                                     ,,################,,,,,                         
                               ,,#################################,,                 
                          ,,##########################################,,             
                       ,#########################################, ''#####,          
                    ,#############################################,,   '####,        
                  ,##################################################,,,,####,       
                ,###########''''           ''''###############################       
              ,#####''   ,,,,##########,,,,          '''####'''          '####       
            ,##' ,,,,###########################,,,                        '##       
           ' ,,###''''                  '''############,,,                           
         ,,##''                                '''############,,,,        ,,,,,,###''
      ,#''                                            '''#######################'''  
     '                                                          ''''####''''         
             ,#######,   #######,   ,#######,      ##                                
            ,#'     '#,  ##    ##  ,#'     '#,    #''#        ######   ,####,        
            ##       ##  ##   ,#'  ##            #'  '#       #        #'  '#        
            ##       ##  #######   ##           ,######,      #####,   #    #        
            '#,     ,#'  ##    ##  '#,     ,#' ,#      #,         ##   #,  ,#        
             '#######'   ##     ##  '#######'  #'      '#     #####' # '####'        



                  #######################################################
                  #                        -***-                        #
                  #          Department of theory and spectroscopy      #
                  #    Directorship and core code : Frank Neese         #
                  #        Max Planck Institute fuer Kohlenforschung    #
                  #                Kaiser Wilhelm Platz 1               #
                  #                 D-45470 Muelheim/Ruhr               #
                  #                      Germany                        #
                  #                                                     #
                  #                  All rights reserved                #
                  #                        -***-                        #
                  #######################################################


                         Program Version 5.0.4 -  RELEASE  -


 With contributions from (in alphabetic order):
   Daniel Aravena         : Magnetic Suceptibility
   Michael Atanasov       : Ab Initio Ligand Field Theory (pilot matlab implementation)
   Alexander A. Auer      : GIAO ZORA, VPT2 properties, NMR spectrum
   Ute Becker             : Parallelization
   Giovanni Bistoni       : ED, misc. LED, open-shell LED, HFLD
   Martin Brehm           : Molecular dynamics
   Dmytro Bykov           : SCF Hessian
   Vijay G. Chilkuri      : MRCI spin determinant printing, contributions to CSF-ICE
   Dipayan Datta          : RHF DLPNO-CCSD density
   Achintya Kumar Dutta   : EOM-CC, STEOM-CC
   Dmitry Ganyushin       : Spin-Orbit,Spin-Spin,Magnetic field MRCI
   Miquel Garcia          : C-PCM and meta-GGA Hessian, CC/C-PCM, Gaussian charge scheme
   Yang Guo               : DLPNO-NEVPT2, F12-NEVPT2, CIM, IAO-localization
   Andreas Hansen         : Spin unrestricted coupled pair/coupled cluster methods
   Benjamin Helmich-Paris : MC-RPA, TRAH-SCF, COSX integrals
   Lee Huntington         : MR-EOM, pCC
   Robert Izsak           : Overlap fitted RIJCOSX, COSX-SCS-MP3, EOM
   Marcus Kettner         : VPT2
   Christian Kollmar      : KDIIS, OOCD, Brueckner-CCSD(T), CCSD density, CASPT2, CASPT2-K
   Simone Kossmann        : Meta GGA functionals, TD-DFT gradient, OOMP2, MP2 Hessian
   Martin Krupicka        : Initial AUTO-CI
   Lucas Lang             : DCDCAS
   Marvin Lechner         : AUTO-CI (C++ implementation), FIC-MRCC
   Dagmar Lenk            : GEPOL surface, SMD
   Dimitrios Liakos       : Extrapolation schemes; Compound Job, initial MDCI parallelization
   Dimitrios Manganas     : Further ROCIS development; embedding schemes
   Dimitrios Pantazis     : SARC Basis sets
   Anastasios Papadopoulos: AUTO-CI, single reference methods and gradients
   Taras Petrenko         : DFT Hessian,TD-DFT gradient, ASA, ECA, R-Raman, ABS, FL, XAS/XES, NRVS
   Peter Pinski           : DLPNO-MP2, DLPNO-MP2 Gradient
   Christoph Reimann      : Effective Core Potentials
   Marius Retegan         : Local ZFS, SOC
   Christoph Riplinger    : Optimizer, TS searches, QM/MM, DLPNO-CCSD(T), (RO)-DLPNO pert. Triples
   Tobias Risthaus        : Range-separated hybrids, TD-DFT gradient, RPA, STAB
   Michael Roemelt        : Original ROCIS implementation
   Masaaki Saitow         : Open-shell DLPNO-CCSD energy and density
   Barbara Sandhoefer     : DKH picture change effects
   Avijit Sen             : IP-ROCIS
   Kantharuban Sivalingam : CASSCF convergence, NEVPT2, FIC-MRCI
   Bernardo de Souza      : ESD, SOC TD-DFT
   Georgi Stoychev        : AutoAux, RI-MP2 NMR, DLPNO-MP2 response
   Willem Van den Heuvel  : Paramagnetic NMR
   Boris Wezisla          : Elementary symmetry handling
   Frank Wennmohs         : Technical directorship


 We gratefully acknowledge several colleagues who have allowed us to
 interface, adapt or use parts of their codes:
   Stefan Grimme, W. Hujo, H. Kruse, P. Pracht,  : VdW corrections, initial TS optimization,
                  C. Bannwarth, S. Ehlert          DFT functionals, gCP, sTDA/sTD-DF
   Ed Valeev, F. Pavosevic, A. Kumar             : LibInt (2-el integral package), F12 methods
   Garnet Chan, S. Sharma, J. Yang, R. Olivares  : DMRG
   Ulf Ekstrom                                   : XCFun DFT Library
   Mihaly Kallay                                 : mrcc  (arbitrary order and MRCC methods)
   Jiri Pittner, Ondrej Demel                    : Mk-CCSD
   Frank Weinhold                                : gennbo (NPA and NBO analysis)
   Christopher J. Cramer and Donald G. Truhlar   : smd solvation model
   Lars Goerigk                                  : TD-DFT with DH, B97 family of functionals
   V. Asgeirsson, H. Jonsson                     : NEB implementation
   FAccTs GmbH                                   : IRC, NEB, NEB-TS, DLPNO-Multilevel, CI-OPT
                                                   MM, QMMM, 2- and 3-layer-ONIOM, Crystal-QMMM,
                                                   LR-CPCM, SF, NACMEs, symmetry and pop. for TD-DFT,
                                                   nearIR, NL-DFT gradient (VV10), updates on ESD,
                                                   ML-optimized integration grids
   S Lehtola, MJT Oliveira, MAL Marques          : LibXC Library
   Liviu Ungur et al                             : ANISO software


 Your calculation uses the libint2 library for the computation of 2-el integrals
 For citations please refer to: http://libint.valeyev.net

 Your ORCA version has been built with support for libXC version: 5.1.0
 For citations please refer to: https://tddft.org/programs/libxc/

 This ORCA versions uses:
   CBLAS   interface :  Fast vector & matrix operations
   LAPACKE interface :  Fast linear algebra routines
   SCALAPACK package :  Parallel linear algebra routines
   Shared memory     :  Shared parallel matrices
   BLAS/LAPACK       :  OpenBLAS 0.3.15  USE64BITINT DYNAMIC_ARCH NO_AFFINITY Zen SINGLE_THREADED
        Core in use  :  Zen
   Copyright (c) 2011-2014, The OpenBLAS Project




***************************************
The coordinates will be read from file: geo.xyz
***************************************


================================================================================

----- Orbital basis set information -----
Your calculation utilizes the basis: DKH-def2-TZVPP
   Exponents from def2-TZVPP [F. Weigend and R. Ahlrichs, Phys. Chem. Chem. Phys. 7, 3297 (2005)],
   recontracted for DKH2 by D. A. Pantazis.

----- AuxJ basis set information -----
Your calculation utilizes the AutoAux generation procedure.
  G. L. Stoychev, A. A. Auer, F. Neese, J. Chem. Theory Comput. 13, 554 (2017)

----- AuxC basis set information -----
Your calculation utilizes the AutoAux generation procedure.
  G. L. Stoychev, A. A. Auer, F. Neese, J. Chem. Theory Comput. 13, 554 (2017)

----- AuxJK basis set information -----
Your calculation utilizes the AutoAux generation procedure.
  G. L. Stoychev, A. A. Auer, F. Neese, J. Chem. Theory Comput. 13, 554 (2017)

================================================================================
                                        WARNINGS
                       Please study these warnings very carefully!
================================================================================


INFO   : the flag for use of the SHARK integral package has been found!

================================================================================
                                       INPUT FILE
================================================================================
NAME = rho.inp
|  1> !CASSCF  DKH DKH-def2-TZVPP  RIJCOSX NoSFitting VeryTightSCF autoaux moread SlowConv
|  2> %moinp "orb.gbw"
|  3> %pal
|  4> nprocs 10
|  5> end
|  6> %maxcore 4000
|  7> # swap
|  8> #%scf
|  9> # Rotate
| 10> #  { 35, 29 }
| 11> # end
| 12> #end
| 13> #
| 14> %rel
| 15>  picturechange 2
| 16> end
| 17> %casscf
| 18>  nel  7
| 19>  norb 5
| 20>  mult 4,2
| 21>  nroots 10,40
| 22>  maxiter 100
| 23>  ActOrbs dOrbs
| 24>  rel
| 25>   printlevel 3
| 26>   dosoc true
| 27>   gtensor true
| 28>   quad true
| 29>  end
| 30> end
| 31> * xyzfile 0 4 geo.xyz *
| 32> 
| 33>                          ****END OF INPUT****
================================================================================

                       ****************************
                       * Single Point Calculation *
                       ****************************

---------------------------------
CARTESIAN COORDINATES (ANGSTROEM)
---------------------------------
  Co    -0.000007    0.000010    0.000009
  C      1.992445    0.008392   -0.109668
  C      2.569902   -1.302956    0.436511
  H      2.234433    0.083406   -1.189055
  C      2.571528    1.230357    0.613217
  H      3.675828   -1.321776    0.381291
  H      2.207293   -2.183770   -0.114693
  H      2.312544   -1.449904    1.498583
  H      3.677228    1.257477    0.557207
  H      2.206739    2.179653    0.192600
  H      2.318042    1.226275    1.686291
  C     -1.992455   -0.008386    0.109669
  C     -2.571514   -1.230359   -0.613218
  H     -2.234434   -0.083403    1.189058
  C     -2.569916    1.302956   -0.436512
  H     -3.677214   -1.257499   -0.557214
  H     -2.206711   -2.179650   -0.192600
  H     -2.318023   -1.226272   -1.686290
  H     -3.675842    1.321772   -0.381297
  H     -2.207313    2.183772    0.114693
  H     -2.312554    1.449904   -1.498583

----------------------------
CARTESIAN COORDINATES (A.U.)
----------------------------
  NO LB      ZA    FRAG     MASS         X           Y           Z
   0 Co   27.0000    0    58.930   -0.000014    0.000018    0.000018
   1 C     6.0000    0    12.011    3.765176    0.015858   -0.207242
   2 C     6.0000    0    12.011    4.856411   -2.462229    0.824887
   3 H     1.0000    0     1.008    4.222467    0.157614   -2.246989
   4 C     6.0000    0    12.011    4.859484    2.325038    1.158812
   5 H     1.0000    0     1.008    6.946308   -2.497794    0.720536
   6 H     1.0000    0     1.008    4.171179   -4.126726   -0.216738
   7 H     1.0000    0     1.008    4.370075   -2.739922    2.831911
   8 H     1.0000    0     1.008    6.948954    2.376286    1.052968
   9 H     1.0000    0     1.008    4.170131    4.118948    0.363962
  10 H     1.0000    0     1.008    4.380465    2.317325    3.186628
  11 C     6.0000    0    12.011   -3.765195   -0.015848    0.207244
  12 C     6.0000    0    12.011   -4.859457   -2.325042   -1.158814
  13 H     1.0000    0     1.008   -4.222468   -0.157610    2.246995
  14 C     6.0000    0    12.011   -4.856437    2.462231   -0.824888
  15 H     1.0000    0     1.008   -6.948927   -2.376329   -1.052982
  16 H     1.0000    0     1.008   -4.170079   -4.118941   -0.363961
  17 H     1.0000    0     1.008   -4.380428   -2.317318   -3.186627
  18 H     1.0000    0     1.008   -6.946335    2.497787   -0.720547
  19 H     1.0000    0     1.008   -4.171218    4.126732    0.216738
  20 H     1.0000    0     1.008   -4.370094    2.739922   -2.831911

--------------------------------
INTERNAL COORDINATES (ANGSTROEM)
--------------------------------
 Co     0   0   0     0.000000000000     0.00000000     0.00000000
 C      1   0   0     1.995486525413     0.00000000     0.00000000
 C      2   1   0     1.533427601024   110.66097147     0.00000000
 H      2   1   3     1.108721026565   105.76661302   117.67969018
 C      2   1   3     1.533329137303   110.76435250   235.42735951
 H      3   2   1     1.107463752039   111.89019246   179.76200751
 H      3   2   1     1.100519791862   112.45598369    59.44539352
 H      3   2   1     1.102643612902   111.66323480   298.63958655
 H      5   2   1     1.107449635857   111.88463296   180.42858536
 H      5   2   1     1.100524085796   112.46107292   300.74758114
 H      5   2   1     1.102614821361   111.65663977    61.55885151
 C      1   2   3     1.995481231776   179.99936572   284.57856278
 C     12   1   2     1.533327331961   110.76399345    19.99430562
 H     12   1   2     1.108721204072   105.76562588   137.74169162
 C     12   1   2     1.533425370493   110.66098438   255.42136164
 H     13  12   1     1.107449759024   111.88473829   179.57091301
 H     13  12   1     1.100523961930   112.46109613    59.25189956
 H     13  12   1     1.102614672175   111.65657412   298.44058596
 H     15  12   1     1.107463814542   111.89026501   180.23829297
 H     15  12   1     1.100519673949   112.45600337   300.55493030
 H     15  12   1     1.102643483598   111.66317700    61.36077508

---------------------------
INTERNAL COORDINATES (A.U.)
---------------------------
 Co     0   0   0     0.000000000000     0.00000000     0.00000000
 C      1   0   0     3.770923036961     0.00000000     0.00000000
 C      2   1   0     2.897758212131   110.66097147     0.00000000
 H      2   1   3     2.095179099127   105.76661302   117.67969018
 C      2   1   3     2.897572142664   110.76435250   235.42735951
 H      3   2   1     2.092803194599   111.89019246   179.76200751
 H      3   2   1     2.079681011579   112.45598369    59.44539352
 H      3   2   1     2.083694451703   111.66323480   298.63958655
 H      5   2   1     2.092776518881   111.88463296   180.42858536
 H      5   2   1     2.079689125939   112.46107292   300.74758114
 H      5   2   1     2.083640043575   111.65663977    61.55885151
 C      1   2   3     3.770913033437   179.99936572   284.57856278
 C     12   1   2     2.897568731062   110.76399345    19.99430562
 H     12   1   2     2.095179434568   105.76562588   137.74169162
 C     12   1   2     2.897753997038   110.66098438   255.42136164
 H     13  12   1     2.092776751632   111.88473829   179.57091301
 H     13  12   1     2.079688891866   112.46109613    59.25189956
 H     13  12   1     2.083639761654   111.65657412   298.44058596
 H     15  12   1     2.092803312712   111.89026501   180.23829297
 H     15  12   1     2.079680788755   112.45600337   300.55493030
 H     15  12   1     2.083694207353   111.66317700    61.36077508

---------------------
BASIS SET INFORMATION
---------------------
There are 3 groups of distinct atoms

 Group   1 Type Co  : 17s12p7d2f1g contracted to 10s7p4d2f1g pattern {8111111111/6111111/4111/11/1}
 Group   2 Type C   : 11s6p2d1f contracted to 6s3p2d1f pattern {611111/411/11/1}
 Group   3 Type H   : 5s2p1d contracted to 3s2p1d pattern {311/11/1}

Atom   0Co   basis set group =>   1
Atom   1C    basis set group =>   2
Atom   2C    basis set group =>   2
Atom   3H    basis set group =>   3
Atom   4C    basis set group =>   2
Atom   5H    basis set group =>   3
Atom   6H    basis set group =>   3
Atom   7H    basis set group =>   3
Atom   8H    basis set group =>   3
Atom   9H    basis set group =>   3
Atom  10H    basis set group =>   3
Atom  11C    basis set group =>   2
Atom  12C    basis set group =>   2
Atom  13H    basis set group =>   3
Atom  14C    basis set group =>   2
Atom  15H    basis set group =>   3
Atom  16H    basis set group =>   3
Atom  17H    basis set group =>   3
Atom  18H    basis set group =>   3
Atom  19H    basis set group =>   3
Atom  20H    basis set group =>   3
---------------------------------
AUXILIARY/J BASIS SET INFORMATION
---------------------------------
There are 3 groups of distinct atoms

 Group   1 Type Co  : 22s18p17d17f16g6h3i contracted to 22s18p17d17f16g6h3i pattern {1111111111111111111111/111111111111111111/11111111111111111/11111111111111111/1111111111111111/111111/111}
 Group   2 Type C   : 16s13p12d7f3g contracted to 16s13p12d7f3g pattern {1111111111111111/1111111111111/111111111111/1111111/111}
 Group   3 Type H   : 11s4p3d2f contracted to 11s4p3d2f pattern {11111111111/1111/111/11}

Atom   0Co   basis set group =>   1
Atom   1C    basis set group =>   2
Atom   2C    basis set group =>   2
Atom   3H    basis set group =>   3
Atom   4C    basis set group =>   2
Atom   5H    basis set group =>   3
Atom   6H    basis set group =>   3
Atom   7H    basis set group =>   3
Atom   8H    basis set group =>   3
Atom   9H    basis set group =>   3
Atom  10H    basis set group =>   3
Atom  11C    basis set group =>   2
Atom  12C    basis set group =>   2
Atom  13H    basis set group =>   3
Atom  14C    basis set group =>   2
Atom  15H    basis set group =>   3
Atom  16H    basis set group =>   3
Atom  17H    basis set group =>   3
Atom  18H    basis set group =>   3
Atom  19H    basis set group =>   3
Atom  20H    basis set group =>   3
---------------------------------
AUXILIARY/C BASIS SET INFORMATION
---------------------------------
There are 3 groups of distinct atoms

 Group   1 Type Co  : 22s18p17d17f16g6h3i contracted to 22s18p17d17f16g6h3i pattern {1111111111111111111111/111111111111111111/11111111111111111/11111111111111111/1111111111111111/111111/111}
 Group   2 Type C   : 16s13p12d7f3g contracted to 16s13p12d7f3g pattern {1111111111111111/1111111111111/111111111111/1111111/111}
 Group   3 Type H   : 11s4p3d2f contracted to 11s4p3d2f pattern {11111111111/1111/111/11}

Atom   0Co   basis set group =>   1
Atom   1C    basis set group =>   2
Atom   2C    basis set group =>   2
Atom   3H    basis set group =>   3
Atom   4C    basis set group =>   2
Atom   5H    basis set group =>   3
Atom   6H    basis set group =>   3
Atom   7H    basis set group =>   3
Atom   8H    basis set group =>   3
Atom   9H    basis set group =>   3
Atom  10H    basis set group =>   3
Atom  11C    basis set group =>   2
Atom  12C    basis set group =>   2
Atom  13H    basis set group =>   3
Atom  14C    basis set group =>   2
Atom  15H    basis set group =>   3
Atom  16H    basis set group =>   3
Atom  17H    basis set group =>   3
Atom  18H    basis set group =>   3
Atom  19H    basis set group =>   3
Atom  20H    basis set group =>   3
----------------------------------
AUXILIARY/JK BASIS SET INFORMATION
----------------------------------
There are 3 groups of distinct atoms

 Group   1 Type Co  : 22s18p17d17f16g6h3i contracted to 22s18p17d17f16g6h3i pattern {1111111111111111111111/111111111111111111/11111111111111111/11111111111111111/1111111111111111/111111/111}
 Group   2 Type C   : 16s13p12d7f3g contracted to 16s13p12d7f3g pattern {1111111111111111/1111111111111/111111111111/1111111/111}
 Group   3 Type H   : 11s4p3d2f contracted to 11s4p3d2f pattern {11111111111/1111/111/11}

Atom   0Co   basis set group =>   1
Atom   1C    basis set group =>   2
Atom   2C    basis set group =>   2
Atom   3H    basis set group =>   3
Atom   4C    basis set group =>   2
Atom   5H    basis set group =>   3
Atom   6H    basis set group =>   3
Atom   7H    basis set group =>   3
Atom   8H    basis set group =>   3
Atom   9H    basis set group =>   3
Atom  10H    basis set group =>   3
Atom  11C    basis set group =>   2
Atom  12C    basis set group =>   2
Atom  13H    basis set group =>   3
Atom  14C    basis set group =>   2
Atom  15H    basis set group =>   3
Atom  16H    basis set group =>   3
Atom  17H    basis set group =>   3
Atom  18H    basis set group =>   3
Atom  19H    basis set group =>   3
Atom  20H    basis set group =>   3


           ************************************************************
           *        Program running with 10 parallel MPI-processes    *
           *              working on a common directory               *
           ************************************************************
------------------------------------------------------------------------------
                           ORCA GTO INTEGRAL CALCULATION
                           -- RI-GTO INTEGRALS CHOSEN --
------------------------------------------------------------------------------
------------------------------------------------------------------------------
                   ___                                                        
                  /   \      - P O W E R E D   B Y -                         
                 /     \                                                     
                 |  |  |   _    _      __       _____    __    __             
                 |  |  |  | |  | |    /  \     |  _  \  |  |  /  |          
                  \  \/   | |  | |   /    \    | | | |  |  | /  /          
                 / \  \   | |__| |  /  /\  \   | |_| |  |  |/  /          
                |  |  |   |  __  | /  /__\  \  |    /   |      \           
                |  |  |   | |  | | |   __   |  |    \   |  |\   \          
                \     /   | |  | | |  |  |  |  | |\  \  |  | \   \       
                 \___/    |_|  |_| |__|  |__|  |_| \__\ |__|  \__/        
                                                                              
                      - O R C A' S   B I G   F R I E N D -                    
                                      &                                       
                       - I N T E G R A L  F E E D E R -                       
                                                                              
 v1 FN, 2020, v2 2021                                                         
------------------------------------------------------------------------------


Reading SHARK input file rho.SHARKINP.tmp ... ok
----------------------
SHARK INTEGRAL PACKAGE
----------------------

Number of atoms                             ...     21
Number of basis functions                   ...    462
Number of shells                            ...    180
Maximum angular momentum                    ...      4
Integral batch strategy                     ... SHARK/LIBINT Hybrid
RI-J (if used) integral strategy            ... SPLIT-RIJ (Revised 2003 algorithm where possible)
Printlevel                                  ...      1
Contraction scheme used                     ... SEGMENTED contraction
Coulomb Range Separation                    ... NOT USED
Exchange Range Separation                   ... NOT USED
Finite Nucleus Model                        ... NOT USED
Auxiliary Coulomb fitting basis             ... AVAILABLE
   # of basis functions in Aux-J            ...   2403
   # of shells in Aux-J                     ...    685
   Maximum angular momentum in Aux-J        ...      6
Auxiliary J/K fitting basis                 ... AVAILABLE
   # of basis functions in Aux-JK           ...   2403
   # of shells in Aux-JK                    ...    685
   Maximum angular momentum in Aux-JK       ...      6
Auxiliary Correlation fitting basis         ... AVAILABLE
   # of basis functions in Aux-C            ...   2403
   # of shells in Aux-C                     ...    685
   Maximum angular momentum in Aux-C        ...      6
Auxiliary 'external' fitting basis          ... NOT available
Integral threshold                          ...     1.000000e-12
Primitive cut-off                           ...     1.000000e-14
Primitive pair pre-selection threshold      ...     1.000000e-14

Calculating pre-screening integrals         ... done (  0.1 sec) Dimension = 180
Organizing shell pair data                  ... done (  0.1 sec)
Shell pair information
Total number of shell pairs                 ...     16290
Shell pairs after pre-screening             ...     13498
Total number of primitive shell pairs       ...     37073
Primitive shell pairs kept                  ...     24215
          la=0 lb=0:   3200 shell pairs
          la=1 lb=0:   3892 shell pairs
          la=1 lb=1:   1212 shell pairs
          la=2 lb=0:   2152 shell pairs
          la=2 lb=1:   1318 shell pairs
          la=2 lb=2:    362 shell pairs
          la=3 lb=0:    590 shell pairs
          la=3 lb=1:    372 shell pairs
          la=3 lb=2:    204 shell pairs
          la=3 lb=3:     34 shell pairs
          la=4 lb=0:     74 shell pairs
          la=4 lb=1:     49 shell pairs
          la=4 lb=2:     30 shell pairs
          la=4 lb=3:      8 shell pairs
          la=4 lb=4:      1 shell pairs

Calculating one electron integrals          ... done (  0.0 sec)
Calculating RI/J V-Matrix + Cholesky decomp.... done (  0.4 sec)
Calculating RI/JK V-Matrix + Cholesky decomp... done (  0.3 sec)
Calculating RI/C V-Matrix + Cholesky decomp.... done (  0.3 sec)
Calculating Nuclear repulsion               ... done (  0.0 sec) ENN=    479.369789166696 Eh

SHARK setup successfully completed in   1.6 seconds

Maximum memory used throughout the entire GTOINT-calculation: 46.7 MB


           ************************************************************
           *        Program running with 10 parallel MPI-processes    *
           *              working on a common directory               *
           ************************************************************
------------------------------------------------------------------------------
                          ORCA RELATIVISTIC HAMILTONIAN
------------------------------------------------------------------------------

Relativistic Method            ... DKH
Order of DKH treatment         ...   2
Treatment of potential         ... V(e,N)
Eps parameter for DKH          ...   0.00000000010000
Nucleus model                  ... Point Nucleus
Speed of light used            ... 137.03598950000000


            ************************************************
            *        DOUGLAS-KROLL-HESS HAMILTONIAN        *
            *   Programmed by FN according to literature   *
            *        procedures. Special thanks to         *
            *       B.A. Hess, M. Reiher and A. Wolf       *
            *     University Erlangen-Nuernberg/Bonn       *
            ************************************************

Uncontracting the basis (first version)        ... done
Number of contracted basis functions           ...  462
Number of uncontracted basis functions         ...  611
Initializing the DKH file                      ... done
Calculating the relativistic integrals         ... done
Storing DKH matrices                           ... done
Code used for DKH trafo                        ... ORCA
Computing the DKH transformation               ... done
Storing the transformation variables           ... done
Transforming V and pVp to p**2 space           ... done
First transformation of V and pVp              ... done
Second transformation of Veff                  ... done
Adding kinetic energy                          ... done
Back transformation of Veff to r-space         ... done
Recovering DKH matrices                        ... done
Recontracting the H-matrix (first version)     ... done
Computing the DKH correction to the H-matrix   ... done
Reading the original H-matrix                  ... done
Adding DKH correction to the H-matrix          ... done
Storing the new modified H-matrix              ... done

Maximum memory used throughout the entire REL-calculation: 76.6 MB


           ************************************************************
           *        Program running with 10 parallel MPI-processes    *
           *              working on a common directory               *
           ************************************************************
-------------------------------------------------------------------------------
                                 ORCA SCF
-------------------------------------------------------------------------------

------------
SCF SETTINGS
------------
Hamiltonian:
 Ab initio Hamiltonian  Method          .... Hartree-Fock(GTOs)
 RI-approximation to the Coulomb term is turned on
   Number of AuxJ basis functions       .... 2403
   RIJ-COSX (HFX calculated with COS-X)).... on

Relativistic Settings:
 Scalar relativistic method             .... Douglas-Kroll-Hess
 Order of DKH procedure    Order        ....    2
 Mode of DKH-treatment                  .... V=V(e,N)
 Speed of light used       Velit        ....       137.035989
 Cutoff-constant           Eps          ....            1e-10 


General Settings:
 Integral files         IntName         .... rho
 Hartree-Fock type      HFTyp           .... CASSCF
 Total Charge           Charge          ....    0
 Multiplicity           Mult            ....    4
 Number of Electrons    NEL             ....   77
 Basis Dimension        Dim             ....  462
 Nuclear Repulsion      ENuc            ....    479.3697891667 Eh


Diagonalization of the overlap matrix:
Smallest eigenvalue                        ... 1.634e-04
Time for diagonalization                   ...    0.029 sec
Threshold for overlap eigenvalues          ... 1.000e-08
Number of eigenvalues below threshold      ... 0
Time for construction of square roots      ...    0.015 sec
Total time needed                          ...    0.045 sec

---------------------
INITIAL GUESS: MOREAD
---------------------
Guess MOs are being read from file: orb.gbw
Input Geometry matches current geometry (good)
Input basis set matches current basis set (good)
MOs were renormalized
Gram-Schmidt orthogonalization of all MOs with pivot on actives
                      ------------------
                      INITIAL GUESS DONE (   0.7 sec)
                      ------------------
--------------------
COSX GRID GENERATION
--------------------

GRIDX 1
-------
General Integration Accuracy     IntAcc      ... 3.816
Radial Grid Type                 RadialGrid  ... OptM3 with GC (2021)
Angular Grid (max. ang.)         AngularGrid ... 1 (Lebedev-50)
Angular grid pruning method      GridPruning ... 4 (adaptive)
Weight generation scheme         WeightScheme... Becke
Basis function cutoff            BFCut       ... 1.0000e-12
Integration weight cutoff        WCut        ... 1.0000e-14
Angular grids for H and He will be reduced by one unit
Partially contracted basis set               ... on
Rotationally invariant grid construction     ... off

Total number of grid points                  ...    11630
Total number of batches                      ...      194
Average number of points per batch           ...       59
Average number of grid points per atom       ...      554

GRIDX 2
-------
General Integration Accuracy     IntAcc      ... 4.020
Radial Grid Type                 RadialGrid  ... OptM3 with GC (2021)
Angular Grid (max. ang.)         AngularGrid ... 2 (Lebedev-110)
Angular grid pruning method      GridPruning ... 4 (adaptive)
Weight generation scheme         WeightScheme... Becke
Basis function cutoff            BFCut       ... 1.0000e-12
Integration weight cutoff        WCut        ... 1.0000e-14
Angular grids for H and He will be reduced by one unit
Partially contracted basis set               ... on
Rotationally invariant grid construction     ... off

Total number of grid points                  ...    23962
Total number of batches                      ...      381
Average number of points per batch           ...       62
Average number of grid points per atom       ...     1141

GRIDX 3
-------
General Integration Accuracy     IntAcc      ... 4.338
Radial Grid Type                 RadialGrid  ... OptM3 with GC (2021)
Angular Grid (max. ang.)         AngularGrid ... 3 (Lebedev-194)
Angular grid pruning method      GridPruning ... 4 (adaptive)
Weight generation scheme         WeightScheme... Becke
Basis function cutoff            BFCut       ... 1.0000e-12
Integration weight cutoff        WCut        ... 1.0000e-14
Angular grids for H and He will be reduced by one unit
Partially contracted basis set               ... on
Rotationally invariant grid construction     ... off

Total number of grid points                  ...    52430
Total number of batches                      ...      832
Average number of points per batch           ...       63
Average number of grid points per atom       ...     2497

Time for X-Grid setup             =    0.381 sec



 ... the calculation is a CASSCF calculation -I'm leaving here GOOD LUCK!!!



           ************************************************************
           *        Program running with 10 parallel MPI-processes    *
           *              working on a common directory               *
           ************************************************************
-------------------------------------------------------------------------------
                              ORCA-CASSCF
-------------------------------------------------------------------------------

Setting up the integral package       ... done
Setting up the integral package (RI)  ... done
Building the CAS space                ... done (10 configurations for Mult=4)
Building the CAS space                ... done (30 configurations for Mult=2)

SYSTEM-SPECIFIC SETTINGS:
Number of active electrons          ...    7
Number of active orbitals           ...    5
Total number of electrons           ...   77
Total number of orbitals            ...  462
Total number aux. functions         ... 2403

Determined orbital ranges:
   Internal       0 -   34 (  35 orbitals)
   Active        35 -   39 (   5 orbitals)
   External      40 -  461 ( 422 orbitals)
Number of rotation parameters      ...  17055

CI-STEP:
CI strategy                         ... General CI
Number of multiplicity blocks       ...    2
BLOCK  1 WEIGHT=   0.5000
  Multiplicity                      ...    4
  #(Configurations)                 ...   10
  #(CSFs)                           ...   10
  #(Roots)                          ...   10
    ROOT=0 WEIGHT=    0.050000
    ROOT=1 WEIGHT=    0.050000
    ROOT=2 WEIGHT=    0.050000
    ROOT=3 WEIGHT=    0.050000
    ROOT=4 WEIGHT=    0.050000
    ROOT=5 WEIGHT=    0.050000
    ROOT=6 WEIGHT=    0.050000
    ROOT=7 WEIGHT=    0.050000
    ROOT=8 WEIGHT=    0.050000
    ROOT=9 WEIGHT=    0.050000

BLOCK  2 WEIGHT=   0.5000
  Multiplicity                      ...    2
  #(Configurations)                 ...   30
  #(CSFs)                           ...   40
  #(Roots)                          ...   40
    ROOT=0 WEIGHT=    0.012500
    ROOT=1 WEIGHT=    0.012500
    ROOT=2 WEIGHT=    0.012500
    ROOT=3 WEIGHT=    0.012500
    ROOT=4 WEIGHT=    0.012500
    ROOT=5 WEIGHT=    0.012500
    ROOT=6 WEIGHT=    0.012500
    ROOT=7 WEIGHT=    0.012500
    ROOT=8 WEIGHT=    0.012500
    ROOT=9 WEIGHT=    0.012500
    ROOT=10 WEIGHT=    0.012500
    ROOT=11 WEIGHT=    0.012500
    ROOT=12 WEIGHT=    0.012500
    ROOT=13 WEIGHT=    0.012500
    ROOT=14 WEIGHT=    0.012500
    ROOT=15 WEIGHT=    0.012500
    ROOT=16 WEIGHT=    0.012500
    ROOT=17 WEIGHT=    0.012500
    ROOT=18 WEIGHT=    0.012500
    ROOT=19 WEIGHT=    0.012500
    ROOT=20 WEIGHT=    0.012500
    ROOT=21 WEIGHT=    0.012500
    ROOT=22 WEIGHT=    0.012500
    ROOT=23 WEIGHT=    0.012500
    ROOT=24 WEIGHT=    0.012500
    ROOT=25 WEIGHT=    0.012500
    ROOT=26 WEIGHT=    0.012500
    ROOT=27 WEIGHT=    0.012500
    ROOT=28 WEIGHT=    0.012500
    ROOT=29 WEIGHT=    0.012500
    ROOT=30 WEIGHT=    0.012500
    ROOT=31 WEIGHT=    0.012500
    ROOT=32 WEIGHT=    0.012500
    ROOT=33 WEIGHT=    0.012500
    ROOT=34 WEIGHT=    0.012500
    ROOT=35 WEIGHT=    0.012500
    ROOT=36 WEIGHT=    0.012500
    ROOT=37 WEIGHT=    0.012500
    ROOT=38 WEIGHT=    0.012500
    ROOT=39 WEIGHT=    0.012500

  PrintLevel                        ...    1
  N(GuessMat)                       ...       512
  MaxDim(CI)                        ...        10
  MaxIter(CI)                       ...        64
  Energy Tolerance CI               ...  1.00e-09
  Residual Tolerance CI             ...  1.00e-09
  Shift(CI)                         ...  1.00e-04

INTEGRAL-TRANSFORMATION-STEP:
  Algorithm                         ... RI-MO

ORBITAL-IMPROVEMENT-STEP:
  Algorithm                         ... SuperCI
  Default Parametrization           ... CAYLEY
  Act-Act rotations                 ... depends on algorithm used
  FreezeIE                          ... 95.00% of ||g||
  Until reaching FreezeIE rotations with active orbitals are damped. 

  Approx. Fock at                   ... 0.000000e+00 density convergence
  Level shift                       ... energy gap dependent. Minimum=1.000
  Switch step at gradient           ...  3.00e-02 
  Switch step at iteration          ...        50   
  Switch step to                    ... DIIS    

SCF-SETTINGS:
  Incremental                       ... off
  RIJCOSX approximation             ... on
  UseFinalGrid                      ... on
  RI-JK approximation               ... off
  AO integral handling              ... DIRECT
  Integral Neglect Thresh           ...  1.00e-12
  Primitive cutoff TCut             ...  1.00e-14
  Energy convergence tolerance      ...  1.00e-08
  Orbital gradient convergence      ...  1.00e-05
  Max. number of iterations         ...       100  


PROPERTIES-SETTINGS:
  Spin orbit coupling               ... true
  GTensor                           ... true

FINAL ORBITALS:
  Active   Orbitals                 ... d-orbitals 
  Internal Orbitals                 ... canonical 
  External Orbitals                 ... canonical 

------------------
CAS-SCF ITERATIONS
------------------


MACRO-ITERATION   1: 
   --- Canonicalize Internal Space
   --- Canonicalize External Space
   --- Inactive Energy E0 = -1604.83183840 Eh
CI-ITERATION   0: 
 -1627.303013885   0.000000000000 (    0.00)
 -1627.302717260   0.000000000000
 -1627.295656816   0.000000000000
 -1627.295440248   0.000000000000
 -1627.295298112   0.000000000000
 -1627.294444674   0.000000000000
 -1627.293767185   0.000000000000
 -1627.227032325   0.000000000000
 -1627.210972025   0.000000000000
 -1627.210508581   0.000000000000
   CI-PROBLEM SOLVED
   DENSITIES MADE
CI-ITERATION   0: 
 -1627.221324212   0.000000000000 (    0.00)
 -1627.221153506   0.000000000000
 -1627.220736774   0.000000000000
 -1627.220635891   0.000000000000
 -1627.219166237   0.000000000000
 -1627.219153275   0.000000000000
 -1627.216902508   0.000000000000
 -1627.209341262   0.000000000000
 -1627.209340168   0.000000000000
 -1627.204254943   0.000000000000
 -1627.202527830   0.000000000000
 -1627.202331862   0.000000000000
 -1627.194091217   0.000000000000
 -1627.193782290   0.000000000000
 -1627.191920676   0.000000000000
 -1627.191837842   0.000000000000
 -1627.188562698   0.000000000000
 -1627.188559989   0.000000000000
 -1627.185956198   0.000000000000
 -1627.185921543   0.000000000000
 -1627.182910257   0.000000000000
 -1627.182151755   0.000000000000
 -1627.182149806   0.000000000000
 -1627.175530015   0.000000000000
 -1627.175343410   0.000000000000
 -1627.174346355   0.000000000000
 -1627.174344500   0.000000000000
 -1627.171584501   0.000000000000
 -1627.114227358   0.000000000000
 -1627.112175362   0.000000000000
 -1627.111866089   0.000000000000
 -1627.108099026   0.000000000000
 -1627.108090722   0.000000000000
 -1627.104397890   0.000000000000
 -1627.104388289   0.000000000000
 -1627.010485018   0.000000000000
 -1627.008939791   0.000000000000
 -1627.008877582   0.000000000000
 -1626.985969460   0.000000000000
 -1626.985959696   0.000000000000
   CI-PROBLEM SOLVED
   DENSITIES MADE

                 <<<<<<<<<<<<<<<<<<INITIAL CI STATE CHECK>>>>>>>>>>>>>>>>>>

BLOCK  1 MULT= 4 NROOTS=10 
ROOT   0:  E=   -1627.3030138849 Eh
      0.62095 [     3]: 12112
      0.25789 [     7]: 21121
      0.07122 [     8]: 21211
      0.03526 [     5]: 12211
      0.00959 [     0]: 11122
      0.00293 [     4]: 12121
ROOT   1:  E=   -1627.3027172597 Eh  0.008 eV     65.1 cm**-1
      0.43610 [     9]: 22111
      0.38927 [     0]: 11122
      0.11170 [     1]: 11212
      0.02377 [     4]: 12121
      0.01559 [     6]: 21112
      0.01365 [     2]: 11221
      0.00409 [     7]: 21121
      0.00319 [     8]: 21211
ROOT   2:  E=   -1627.2956568163 Eh  0.200 eV   1614.7 cm**-1
      0.41143 [     5]: 12211
      0.31150 [     8]: 21211
      0.08719 [     7]: 21121
      0.08370 [     0]: 11122
      0.06927 [     4]: 12121
      0.02328 [     9]: 22111
      0.00947 [     3]: 12112
      0.00327 [     6]: 21112
ROOT   3:  E=   -1627.2954402479 Eh  0.206 eV   1662.2 cm**-1
      0.49360 [     1]: 11212
      0.22250 [     0]: 11122
      0.17537 [     2]: 11221
      0.05950 [     5]: 12211
      0.02178 [     7]: 21121
      0.02098 [     6]: 21112
ROOT   4:  E=   -1627.2952981120 Eh  0.210 eV   1693.4 cm**-1
      0.39842 [     7]: 21121
      0.18104 [     3]: 12112
      0.13053 [     4]: 12121
      0.07915 [     8]: 21211
      0.06639 [     6]: 21112
      0.06011 [     2]: 11221
      0.04917 [     5]: 12211
      0.02069 [     1]: 11212
      0.01318 [     9]: 22111
ROOT   5:  E=   -1627.2944446739 Eh  0.233 eV   1880.7 cm**-1
      0.24046 [     2]: 11221
      0.23689 [     6]: 21112
      0.17048 [     4]: 12121
      0.13288 [     3]: 12112
      0.10369 [     7]: 21121
      0.05537 [     8]: 21211
      0.02430 [     5]: 12211
      0.01838 [     1]: 11212
      0.01015 [     9]: 22111
      0.00740 [     0]: 11122
ROOT   6:  E=   -1627.2937671853 Eh  0.252 eV   2029.4 cm**-1
      0.31797 [     9]: 22111
      0.27038 [     8]: 21211
      0.20589 [     0]: 11122
      0.06405 [     5]: 12211
      0.05559 [     6]: 21112
      0.05144 [     7]: 21121
      0.02846 [     1]: 11212
      0.00604 [     2]: 11221
ROOT   7:  E=   -1627.2270323249 Eh  2.068 eV  16676.0 cm**-1
      0.50921 [     6]: 21112
      0.33472 [     4]: 12121
      0.08291 [     5]: 12211
      0.02413 [     9]: 22111
      0.01723 [     0]: 11122
      0.01642 [     3]: 12112
      0.00729 [     7]: 21121
      0.00708 [     8]: 21211
ROOT   8:  E=   -1627.2109720248 Eh  2.505 eV  20200.9 cm**-1
      0.49425 [     2]: 11221
      0.23829 [     1]: 11212
      0.12519 [     4]: 12121
      0.09040 [     6]: 21112
      0.02042 [     3]: 12112
      0.01128 [     8]: 21211
      0.00892 [     5]: 12211
      0.00619 [     9]: 22111
      0.00431 [     7]: 21121
ROOT   9:  E=   -1627.2105085805 Eh  2.517 eV  20302.6 cm**-1
      0.26364 [     5]: 12211
      0.18833 [     8]: 21211
      0.16671 [     9]: 22111
      0.14292 [     4]: 12121
      0.08780 [     1]: 11212
      0.06389 [     7]: 21121
      0.06234 [     0]: 11122
      0.01527 [     3]: 12112
      0.00815 [     2]: 11221

BLOCK  2 MULT= 2 NROOTS=40 
ROOT   0:  E=   -1627.2213242118 Eh
      0.23989 [     9]: 12112
      0.23936 [     8]: 12022
      0.07770 [     5]: 11122
      0.06975 [    12]: 12211
      0.05818 [    22]: 21220
      0.05732 [    17]: 21022
      0.05248 [    19]: 21121
      0.03309 [    21]: 21211
      0.02524 [    20]: 21202
      0.02075 [    10]: 12121
      0.01904 [    18]: 21112
      0.01533 [     1]: 02122
      0.01455 [     4]: 10222
      0.01177 [    25]: 22102
      0.00964 [     6]: 11212
      0.00816 [    26]: 22111
      0.00803 [    29]: 22210
      0.00745 [    15]: 20212
      0.00617 [    23]: 22012
      0.00493 [     2]: 02212
      0.00453 [    16]: 20221
      0.00425 [    11]: 12202
      0.00317 [     7]: 11221
      0.00267 [    13]: 12220
ROOT   1:  E=   -1627.2211535059 Eh  0.005 eV     37.5 cm**-1
      0.23132 [    26]: 22111
      0.19893 [    24]: 22021
      0.10118 [    23]: 22012
      0.08143 [     2]: 02212
      0.05380 [     6]: 11212
      0.05244 [    16]: 20221
      0.03668 [    25]: 22102
      0.02935 [    19]: 21121
      0.02688 [     9]: 12112
      0.02512 [     7]: 11221
      0.02487 [    17]: 21022
      0.02174 [    27]: 22120
      0.01837 [     1]: 02122
      0.01717 [    10]: 12121
      0.01669 [    21]: 21211
      0.01245 [    14]: 20122
      0.01117 [     5]: 11122
      0.00746 [    15]: 20212
      0.00703 [     8]: 12022
      0.00665 [    11]: 12202
      0.00645 [    28]: 22201
      0.00528 [    18]: 21112
      0.00354 [     3]: 02221
ROOT   2:  E=   -1627.2207367735 Eh  0.016 eV    128.9 cm**-1
      0.25513 [    19]: 21121
      0.21738 [     9]: 12112
      0.09274 [    11]: 12202
      0.08684 [     8]: 12022
      0.06783 [    21]: 21211
      0.03319 [     2]: 02212
      0.02556 [     7]: 11221
      0.02283 [    26]: 22111
      0.02156 [    23]: 22012
      0.01985 [     6]: 11212
      0.01983 [    16]: 20221
      0.01893 [    22]: 21220
      0.01707 [     3]: 02221
      0.01507 [    18]: 21112
      0.01449 [    29]: 22210
      0.01355 [     1]: 02122
      0.01048 [    17]: 21022
      0.00929 [    10]: 12121
      0.00846 [    25]: 22102
      0.00646 [    12]: 12211
      0.00570 [    24]: 22021
      0.00513 [    13]: 12220
      0.00363 [     4]: 10222
      0.00286 [     5]: 11122
      0.00256 [    15]: 20212
ROOT   3:  E=   -1627.2206358912 Eh  0.019 eV    151.1 cm**-1
      0.32299 [     5]: 11122
      0.14028 [    26]: 22111
      0.08962 [    24]: 22021
      0.07379 [    28]: 22201
      0.07187 [    12]: 12211
      0.06629 [     6]: 11212
      0.03360 [     7]: 11221
      0.03318 [    18]: 21112
      0.03282 [     9]: 12112
      0.02645 [    21]: 21211
      0.01936 [     4]: 10222
      0.01461 [    22]: 21220
      0.01338 [    10]: 12121
      0.01150 [    13]: 12220
      0.01086 [    23]: 22012
      0.00986 [     8]: 12022
      0.00634 [    17]: 21022
      0.00553 [    25]: 22102
      0.00488 [    29]: 22210
      0.00342 [    27]: 22120
ROOT   4:  E=   -1627.2191662372 Eh  0.059 eV    473.6 cm**-1
      0.14547 [    19]: 21121
      0.10756 [     9]: 12112
      0.09013 [    23]: 22012
      0.08182 [     6]: 11212
      0.07556 [     8]: 12022
      0.06417 [    10]: 12121
      0.05668 [    12]: 12211
      0.05368 [    11]: 12202
      0.05326 [    29]: 22210
      0.04489 [    17]: 21022
      0.03550 [    18]: 21112
      0.03526 [    16]: 20221
      0.03368 [     7]: 11221
      0.02568 [    20]: 21202
      0.01898 [    25]: 22102
      0.01698 [     5]: 11122
      0.01594 [    28]: 22201
      0.01357 [    21]: 21211
      0.00948 [    26]: 22111
      0.00580 [    15]: 20212
      0.00432 [    24]: 22021
      0.00315 [     3]: 02221
ROOT   5:  E=   -1627.2191532753 Eh  0.059 eV    476.5 cm**-1
      0.16628 [    17]: 21022
      0.11662 [    28]: 22201
      0.07476 [     0]: 01222
      0.07431 [    26]: 22111
      0.07230 [     5]: 11122
      0.05877 [     1]: 02122
      0.05544 [    21]: 21211
      0.04228 [    14]: 20122
      0.04099 [    24]: 22021
      0.03290 [    29]: 22210
      0.02817 [     9]: 12112
      0.02411 [    27]: 22120
      0.02410 [    25]: 22102
      0.02243 [    11]: 12202
      0.02200 [    23]: 22012
      0.01769 [    12]: 12211
      0.01597 [    20]: 21202
      0.01581 [    15]: 20212
      0.01432 [    13]: 12220
      0.01393 [     6]: 11212
      0.01387 [     3]: 02221
      0.01221 [    22]: 21220
      0.01009 [     2]: 02212
      0.00835 [     8]: 12022
      0.00573 [     7]: 11221
      0.00557 [    19]: 21121
      0.00548 [    18]: 21112
      0.00281 [     4]: 10222
ROOT   6:  E=   -1627.2169025079 Eh  0.120 eV    970.5 cm**-1
      0.19448 [     5]: 11122
      0.16813 [    26]: 22111
      0.11352 [    21]: 21211
      0.09040 [    12]: 12211
      0.06744 [     4]: 10222
      0.04057 [    14]: 20122
      0.03575 [     6]: 11212
      0.03277 [    18]: 21112
      0.03119 [    10]: 12121
      0.03072 [    25]: 22102
      0.02825 [    27]: 22120
      0.02599 [     7]: 11221
      0.02412 [    23]: 22012
      0.02021 [    20]: 21202
      0.01790 [     1]: 02122
      0.01328 [    11]: 12202
      0.01319 [     0]: 01222
      0.00940 [    19]: 21121
      0.00759 [     9]: 12112
      0.00714 [    13]: 12220
      0.00708 [    28]: 22201
      0.00527 [     2]: 02212
      0.00494 [    24]: 22021
      0.00410 [     8]: 12022
      0.00392 [    29]: 22210
ROOT   7:  E=   -1627.2093412625 Eh  0.326 eV   2630.0 cm**-1
      0.16076 [     6]: 11212
      0.11929 [     7]: 11221
      0.08958 [     5]: 11122
      0.08833 [    10]: 12121
      0.08020 [    16]: 20221
      0.05524 [    26]: 22111
      0.05462 [    28]: 22201
      0.05384 [     2]: 02212
      0.05060 [    12]: 12211
      0.04701 [    29]: 22210
      0.03622 [    19]: 21121
      0.03364 [     9]: 12112
      0.02469 [    18]: 21112
      0.01641 [    11]: 12202
      0.01602 [    14]: 20122
      0.01257 [    21]: 21211
      0.01138 [    20]: 21202
      0.01123 [     1]: 02122
      0.00929 [    24]: 22021
      0.00789 [    13]: 12220
      0.00538 [    22]: 21220
      0.00459 [    25]: 22102
      0.00290 [     8]: 12022
      0.00269 [    15]: 20212
ROOT   8:  E=   -1627.2093401683 Eh  0.326 eV   2630.2 cm**-1
      0.12201 [    21]: 21211
      0.10172 [     4]: 10222
      0.09889 [    12]: 12211
      0.08899 [    19]: 21121
      0.07599 [    11]: 12202
      0.06739 [     0]: 01222
      0.05923 [     9]: 12112
      0.05393 [    22]: 21220
      0.05213 [     1]: 02122
      0.05126 [     5]: 11122
      0.03590 [    29]: 22210
      0.03418 [    27]: 22120
      0.02609 [    26]: 22111
      0.01824 [    28]: 22201
      0.01807 [    18]: 21112
      0.01375 [    15]: 20212
      0.01304 [     2]: 02212
      0.01295 [    25]: 22102
      0.01023 [     8]: 12022
      0.00938 [    10]: 12121
      0.00909 [     3]: 02221
      0.00899 [     6]: 11212
      0.00499 [    14]: 20122
      0.00300 [     7]: 11221
      0.00274 [    13]: 12220
ROOT   9:  E=   -1627.2042549435 Eh  0.464 eV   3746.3 cm**-1
      0.26607 [    19]: 21121
      0.16665 [     9]: 12112
      0.10791 [    17]: 21022
      0.08761 [    21]: 21211
      0.08604 [    18]: 21112
      0.06167 [    11]: 12202
      0.06096 [     8]: 12022
      0.03623 [    20]: 21202
      0.02072 [     7]: 11221
      0.01811 [    28]: 22201
      0.01776 [    22]: 21220
      0.01284 [     6]: 11212
      0.00957 [    29]: 22210
      0.00730 [    10]: 12121
      0.00647 [    12]: 12211
      0.00577 [    15]: 20212
      0.00451 [    23]: 22012
      0.00392 [    16]: 20221
      0.00390 [     2]: 02212
ROOT  10:  E=   -1627.2025278305 Eh  0.511 eV   4125.3 cm**-1
      0.17784 [    26]: 22111
      0.13119 [    17]: 21022
      0.10126 [    18]: 21112
      0.09256 [     5]: 11122
      0.08763 [     9]: 12112
      0.06979 [    19]: 21121
      0.04693 [     1]: 02122
      0.04530 [    25]: 22102
      0.03362 [    14]: 20122
      0.02962 [     8]: 12022
      0.02774 [    21]: 21211
      0.02693 [    11]: 12202
      0.02622 [    27]: 22120
      0.01498 [    22]: 21220
      0.01417 [    13]: 12220
      0.01377 [     6]: 11212
      0.01347 [    12]: 12211
      0.01089 [    15]: 20212
      0.01047 [     2]: 02212
      0.01041 [    28]: 22201
      0.00775 [    10]: 12121
      0.00319 [    16]: 20221
ROOT  11:  E=   -1627.2023318620 Eh  0.517 eV   4168.3 cm**-1
      0.20912 [     9]: 12112
      0.14962 [    23]: 22012
      0.10601 [    10]: 12121
      0.09947 [    19]: 21121
      0.06551 [    16]: 20221
      0.06200 [     6]: 11212
      0.04852 [    18]: 21112
      0.04507 [    25]: 22102
      0.03846 [    24]: 22021
      0.03003 [    26]: 22111
      0.02599 [    20]: 21202
      0.02308 [    17]: 21022
      0.01654 [     3]: 02221
      0.01527 [    15]: 20212
      0.01092 [    12]: 12211
      0.01049 [     2]: 02212
      0.00956 [    13]: 12220
      0.00821 [     5]: 11122
      0.00663 [    28]: 22201
      0.00542 [     7]: 11221
      0.00469 [    21]: 21211
      0.00279 [    27]: 22120
ROOT  12:  E=   -1627.1940912168 Eh  0.741 eV   5977.0 cm**-1
      0.20217 [     7]: 11221
      0.11983 [     2]: 02212
      0.10522 [    18]: 21112
      0.08455 [    26]: 22111
      0.08198 [     9]: 12112
      0.06841 [     6]: 11212
      0.05166 [    24]: 22021
      0.04324 [     5]: 11122
      0.03427 [     1]: 02122
      0.03338 [    15]: 20212
      0.02201 [     8]: 12022
      0.02117 [    29]: 22210
      0.02079 [    12]: 12211
      0.01997 [    10]: 12121
      0.01734 [     3]: 02221
      0.01546 [    23]: 22012
      0.01138 [    11]: 12202
      0.01059 [    27]: 22120
      0.01043 [    19]: 21121
      0.00703 [    14]: 20122
      0.00514 [    25]: 22102
      0.00368 [    21]: 21211
      0.00358 [    20]: 21202
      0.00262 [    17]: 21022
ROOT  13:  E=   -1627.1937822898 Eh  0.749 eV   6044.8 cm**-1
      0.13104 [    12]: 12211
      0.09731 [    18]: 21112
      0.09189 [    22]: 21220
      0.07412 [    14]: 20122
      0.06781 [     5]: 11122
      0.06456 [    25]: 22102
      0.06421 [    10]: 12121
      0.05810 [     8]: 12022
      0.05429 [    21]: 21211
      0.04885 [    20]: 21202
      0.03313 [     9]: 12112
      0.02910 [    26]: 22111
      0.02879 [     4]: 10222
      0.02558 [    11]: 12202
      0.02229 [    13]: 12220
      0.01638 [    23]: 22012
      0.01481 [    24]: 22021
      0.01471 [    28]: 22201
      0.01427 [     0]: 01222
      0.01085 [    27]: 22120
      0.01014 [     6]: 11212
      0.00772 [     1]: 02122
      0.00529 [    17]: 21022
      0.00517 [    29]: 22210
      0.00340 [     7]: 11221
ROOT  14:  E=   -1627.1919206758 Eh  0.800 eV   6453.3 cm**-1
      0.18403 [     6]: 11212
      0.12905 [    21]: 21211
      0.11914 [    14]: 20122
      0.09835 [    19]: 21121
      0.08577 [     5]: 11122
      0.07458 [    15]: 20212
      0.05014 [    16]: 20221
      0.04358 [    26]: 22111
      0.03849 [     9]: 12112
      0.03539 [    18]: 21112
      0.02985 [    12]: 12211
      0.02499 [    27]: 22120
      0.01396 [    11]: 12202
      0.01375 [    28]: 22201
      0.01267 [     7]: 11221
      0.01152 [    24]: 22021
      0.01025 [    22]: 21220
      0.00728 [     3]: 02221
      0.00716 [     8]: 12022
      0.00253 [     1]: 02122
ROOT  15:  E=   -1627.1918378422 Eh  0.802 eV   6471.5 cm**-1
      0.25795 [    21]: 21211
      0.07787 [    12]: 12211
      0.05949 [    14]: 20122
      0.05915 [     1]: 02122
      0.05625 [    20]: 21202
      0.05286 [    19]: 21121
      0.05208 [    25]: 22102
      0.04941 [    18]: 21112
      0.04654 [    27]: 22120
      0.04498 [    11]: 12202
      0.04207 [     0]: 01222
      0.02302 [    10]: 12121
      0.02281 [     8]: 12022
      0.02230 [     9]: 12112
      0.02228 [     2]: 02212
      0.01819 [     4]: 10222
      0.01497 [     5]: 11122
      0.01383 [    24]: 22021
      0.01376 [    23]: 22012
      0.01227 [    17]: 21022
      0.01210 [    26]: 22111
      0.00935 [     6]: 11212
      0.00506 [    15]: 20212
      0.00383 [    22]: 21220
      0.00340 [    16]: 20221
ROOT  16:  E=   -1627.1885626985 Eh  0.891 eV   7190.3 cm**-1
      0.12033 [    14]: 20122
      0.11788 [    25]: 22102
      0.11225 [     1]: 02122
      0.08374 [    27]: 22120
      0.05597 [    26]: 22111
      0.05374 [     0]: 01222
      0.05208 [     5]: 11122
      0.05196 [    29]: 22210
      0.04285 [    24]: 22021
      0.04208 [    21]: 21211
      0.04136 [    12]: 12211
      0.03565 [    13]: 12220
      0.03508 [    20]: 21202
      0.02927 [    23]: 22012
      0.02664 [    28]: 22201
      0.02424 [     2]: 02212
      0.01473 [     3]: 02221
      0.01281 [     6]: 11212
      0.00726 [    18]: 21112
      0.00712 [     4]: 10222
      0.00654 [    15]: 20212
      0.00607 [    19]: 21121
      0.00438 [     7]: 11221
      0.00419 [    16]: 20221
      0.00414 [    22]: 21220
      0.00411 [    10]: 12121
ROOT  17:  E=   -1627.1885599889 Eh  0.892 eV   7190.9 cm**-1
      0.22765 [    18]: 21112
      0.18988 [    10]: 12121
      0.06737 [    12]: 12211
      0.05262 [    19]: 21121
      0.05063 [     9]: 12112
      0.04458 [     7]: 11221
      0.04332 [    29]: 22210
      0.04271 [     8]: 12022
      0.04236 [     3]: 02221
      0.04180 [     6]: 11212
      0.03011 [    17]: 21022
      0.02762 [    15]: 20212
      0.02671 [     5]: 11122
      0.02576 [    11]: 12202
      0.02534 [    28]: 22201
      0.01514 [    20]: 21202
      0.01411 [    21]: 21211
      0.01281 [    13]: 12220
      0.00441 [     4]: 10222
      0.00375 [    26]: 22111
      0.00303 [     0]: 01222
ROOT  18:  E=   -1627.1859561983 Eh  0.962 eV   7762.4 cm**-1
      0.12910 [    18]: 21112
      0.11077 [    16]: 20221
      0.09567 [     6]: 11212
      0.09010 [    28]: 22201
      0.07007 [     9]: 12112
      0.06440 [     7]: 11221
      0.06377 [     2]: 02212
      0.05980 [    19]: 21121
      0.05441 [    24]: 22021
      0.03937 [    17]: 21022
      0.03922 [    23]: 22012
      0.03063 [     5]: 11122
      0.02763 [     1]: 02122
      0.02461 [    29]: 22210
      0.01737 [     3]: 02221
      0.01703 [    15]: 20212
      0.00825 [    10]: 12121
      0.00770 [    11]: 12202
      0.00702 [    14]: 20122
      0.00648 [    25]: 22102
      0.00584 [     8]: 12022
      0.00571 [    21]: 21211
      0.00550 [    12]: 12211
      0.00440 [    13]: 12220
      0.00405 [    26]: 22111
      0.00386 [     4]: 10222
      0.00271 [    22]: 21220
ROOT  19:  E=   -1627.1859215432 Eh  0.963 eV   7770.0 cm**-1
      0.11173 [    11]: 12202
      0.09255 [    21]: 21211
      0.08417 [    26]: 22111
      0.08101 [     8]: 12022
      0.06631 [    19]: 21121
      0.06502 [     4]: 10222
      0.05324 [    15]: 20212
      0.04604 [    25]: 22102
      0.04088 [    22]: 21220
      0.03929 [    12]: 12211
      0.03900 [    14]: 20122
      0.03728 [     5]: 11122
      0.03595 [    17]: 21022
      0.03153 [    23]: 22012
      0.02709 [     0]: 01222
      0.02498 [    10]: 12121
      0.02491 [     7]: 11221
      0.02420 [    18]: 21112
      0.01975 [     6]: 11212
      0.01497 [    13]: 12220
      0.01063 [    29]: 22210
      0.00872 [    16]: 20221
      0.00650 [     1]: 02122
      0.00612 [     9]: 12112
      0.00416 [    20]: 21202
ROOT  20:  E=   -1627.1829102571 Eh  1.045 eV   8430.9 cm**-1
      0.11504 [     7]: 11221
      0.09642 [     6]: 11212
      0.09429 [     5]: 11122
      0.07728 [    28]: 22201
      0.07305 [    15]: 20212
      0.07029 [    19]: 21121
      0.05793 [    10]: 12121
      0.05349 [     3]: 02221
      0.04778 [    12]: 12211
      0.04506 [    18]: 21112
      0.04004 [    29]: 22210
      0.03740 [    13]: 12220
      0.03469 [    26]: 22111
      0.03109 [     9]: 12112
      0.02525 [    21]: 21211
      0.01850 [    11]: 12202
      0.01542 [    16]: 20221
      0.01059 [    17]: 21022
      0.01049 [    24]: 22021
      0.00914 [     4]: 10222
      0.00733 [    14]: 20122
      0.00673 [     1]: 02122
      0.00569 [     2]: 02212
      0.00412 [    27]: 22120
      0.00403 [     0]: 01222
      0.00343 [    20]: 21202
ROOT  21:  E=   -1627.1821517549 Eh  1.066 eV   8597.4 cm**-1
      0.26165 [    10]: 12121
      0.10839 [     6]: 11212
      0.10227 [    19]: 21121
      0.08970 [     9]: 12112
      0.07595 [    12]: 12211
      0.05531 [    28]: 22201
      0.05422 [    18]: 21112
      0.05276 [    16]: 20221
      0.04353 [    21]: 21211
      0.03202 [     5]: 11122
      0.02739 [    27]: 22120
      0.02717 [    26]: 22111
      0.02283 [     7]: 11221
      0.01234 [    14]: 20122
      0.01076 [     2]: 02212
      0.00546 [    11]: 12202
      0.00370 [     1]: 02122
      0.00281 [    13]: 12220
ROOT  22:  E=   -1627.1821498059 Eh  1.066 eV   8597.8 cm**-1
      0.13614 [    27]: 22120
      0.12655 [    21]: 21211
      0.11807 [     1]: 02122
      0.10405 [     5]: 11122
      0.09670 [    26]: 22111
      0.05005 [    19]: 21121
      0.04897 [    11]: 12202
      0.04336 [     4]: 10222
      0.03750 [     6]: 11212
      0.03584 [    29]: 22210
      0.03062 [     2]: 02212
      0.03023 [    14]: 20122
      0.02737 [     9]: 12112
      0.02504 [    10]: 12121
      0.02018 [    25]: 22102
      0.01340 [     0]: 01222
      0.01170 [     7]: 11221
      0.01156 [    12]: 12211
      0.01109 [    28]: 22201
      0.00765 [    22]: 21220
      0.00407 [    18]: 21112
      0.00268 [     8]: 12022
ROOT  23:  E=   -1627.1755300149 Eh  1.246 eV  10050.7 cm**-1
      0.17169 [    22]: 21220
      0.10068 [     5]: 11122
      0.09531 [     0]: 01222
      0.08195 [     9]: 12112
      0.06648 [     4]: 10222
      0.06511 [    26]: 22111
      0.05597 [     6]: 11212
      0.05344 [    12]: 12211
      0.04208 [    11]: 12202
      0.04066 [    18]: 21112
      0.03943 [    10]: 12121
      0.03207 [    24]: 22021
      0.02962 [    19]: 21121
      0.02618 [    28]: 22201
      0.01570 [    25]: 22102
      0.01550 [     7]: 11221
      0.01501 [    21]: 21211
      0.00875 [     8]: 12022
      0.00852 [    17]: 21022
      0.00598 [    16]: 20221
      0.00547 [     3]: 02221
      0.00521 [    27]: 22120
      0.00496 [     1]: 02122
      0.00472 [    15]: 20212
      0.00364 [    14]: 20122
ROOT  24:  E=   -1627.1753434104 Eh  1.251 eV  10091.6 cm**-1
      0.13452 [    16]: 20221
      0.13249 [     2]: 02212
      0.10273 [    29]: 22210
      0.08017 [    18]: 21112
      0.07245 [    10]: 12121
      0.06744 [     7]: 11221
      0.05441 [    23]: 22012
      0.04556 [    26]: 22111
      0.04282 [    28]: 22201
      0.03286 [     1]: 02122
      0.03111 [    12]: 12211
      0.03056 [    24]: 22021
      0.02760 [    19]: 21121
      0.01966 [    20]: 21202
      0.01764 [    14]: 20122
      0.01484 [     9]: 12112
      0.01386 [    17]: 21022
      0.01248 [     6]: 11212
      0.01207 [     5]: 11122
      0.01038 [    27]: 22120
      0.00966 [    22]: 21220
      0.00920 [     4]: 10222
      0.00677 [     8]: 12022
      0.00589 [    25]: 22102
      0.00588 [    21]: 21211
      0.00572 [    15]: 20212
ROOT  25:  E=   -1627.1743463547 Eh  1.278 eV  10310.4 cm**-1
      0.32924 [     7]: 11221
      0.12312 [    29]: 22210
      0.12180 [     2]: 02212
      0.10916 [     6]: 11212
      0.08361 [    16]: 20221
      0.04082 [    28]: 22201
      0.03576 [    27]: 22120
      0.03010 [     1]: 02122
      0.02676 [     5]: 11122
      0.02337 [    21]: 21211
      0.02030 [    26]: 22111
      0.01432 [     4]: 10222
      0.01093 [    12]: 12211
      0.00711 [    22]: 21220
      0.00683 [    13]: 12220
      0.00406 [    19]: 21121
      0.00361 [    14]: 20122
      0.00299 [    20]: 21202
ROOT  26:  E=   -1627.1743445004 Eh  1.278 eV  10310.9 cm**-1
      0.24380 [    12]: 12211
      0.19444 [    22]: 21220
      0.14301 [     0]: 01222
      0.11240 [    21]: 21211
      0.06761 [     4]: 10222
      0.06477 [    10]: 12121
      0.04524 [    11]: 12202
      0.02745 [    19]: 21121
      0.02104 [     9]: 12112
      0.02097 [     6]: 11212
      0.01683 [    16]: 20221
      0.00990 [     7]: 11221
      0.00931 [    29]: 22210
      0.00533 [    18]: 21112
      0.00510 [     3]: 02221
      0.00390 [    15]: 20212
ROOT  27:  E=   -1627.1715845009 Eh  1.353 eV  10916.6 cm**-1
      0.10983 [     5]: 11122
      0.10380 [    26]: 22111
      0.07537 [    29]: 22210
      0.06476 [     1]: 02122
      0.06108 [    12]: 12211
      0.06021 [    21]: 21211
      0.05919 [     4]: 10222
      0.05587 [    27]: 22120
      0.05131 [    20]: 21202
      0.04810 [     6]: 11212
      0.04600 [    19]: 21121
      0.04103 [     0]: 01222
      0.03613 [    14]: 20122
      0.03085 [    10]: 12121
      0.03084 [    13]: 12220
      0.02491 [    18]: 21112
      0.01449 [     7]: 11221
      0.01434 [     2]: 02212
      0.01367 [     9]: 12112
      0.01137 [    28]: 22201
      0.01111 [     3]: 02221
      0.00860 [    22]: 21220
      0.00817 [    24]: 22021
      0.00660 [    25]: 22102
      0.00551 [    11]: 12202
      0.00414 [     8]: 12022
ROOT  28:  E=   -1627.1142273577 Eh  2.914 eV  23505.0 cm**-1
      0.36113 [    10]: 12121
      0.11976 [    18]: 21112
      0.10016 [     6]: 11212
      0.07905 [    20]: 21202
      0.05621 [    12]: 12211
      0.05139 [    17]: 21022
      0.04590 [    26]: 22111
      0.03762 [    15]: 20212
      0.03403 [     7]: 11221
      0.02756 [    19]: 21121
      0.01902 [    21]: 21211
      0.01087 [    16]: 20221
      0.00988 [     9]: 12112
      0.00764 [    28]: 22201
      0.00684 [     8]: 12022
      0.00517 [    14]: 20122
      0.00485 [    23]: 22012
      0.00456 [    13]: 12220
      0.00453 [    29]: 22210
      0.00434 [     2]: 02212
ROOT  29:  E=   -1627.1121753619 Eh  2.970 eV  23955.4 cm**-1
      0.16445 [     7]: 11221
      0.15372 [     3]: 02221
      0.13326 [    23]: 22012
      0.08551 [    15]: 20212
      0.07449 [    24]: 22021
      0.07409 [    16]: 20221
      0.04995 [    18]: 21112
      0.03786 [    25]: 22102
      0.03203 [     2]: 02212
      0.02855 [     6]: 11212
      0.02798 [    20]: 21202
      0.02499 [    13]: 12220
      0.02100 [     4]: 10222
      0.01999 [    26]: 22111
      0.01072 [    19]: 21121
      0.00984 [     0]: 01222
      0.00868 [    17]: 21022
      0.00852 [     8]: 12022
      0.00840 [    14]: 20122
      0.00489 [    11]: 12202
      0.00439 [    10]: 12121
      0.00382 [     9]: 12112
      0.00373 [    21]: 21211
      0.00289 [     5]: 11122
      0.00275 [    27]: 22120
ROOT  30:  E=   -1627.1118660892 Eh  2.979 eV  24023.3 cm**-1
      0.20246 [    18]: 21112
      0.15342 [    12]: 12211
      0.09511 [    13]: 12220
      0.08023 [     5]: 11122
      0.07978 [    11]: 12202
      0.06569 [    10]: 12121
      0.05495 [     8]: 12022
      0.04351 [    22]: 21220
      0.04329 [    24]: 22021
      0.04053 [    21]: 21211
      0.03748 [    17]: 21022
      0.02773 [    20]: 21202
      0.02447 [    28]: 22201
      0.01508 [    19]: 21121
      0.00683 [     9]: 12112
      0.00647 [    29]: 22210
      0.00646 [     0]: 01222
      0.00464 [    26]: 22111
      0.00353 [    15]: 20212
      0.00319 [    23]: 22012
ROOT  31:  E=   -1627.1080990259 Eh  3.081 eV  24850.1 cm**-1
      0.15303 [    12]: 12211
      0.10798 [    21]: 21211
      0.09650 [     4]: 10222
      0.07868 [    26]: 22111
      0.06252 [    25]: 22102
      0.05720 [     0]: 01222
      0.04986 [    13]: 12220
      0.04947 [     6]: 11212
      0.04844 [    14]: 20122
      0.04591 [     5]: 11122
      0.03539 [    10]: 12121
      0.03489 [     7]: 11221
      0.03212 [    22]: 21220
      0.02762 [    23]: 22012
      0.01722 [     8]: 12022
      0.01525 [     1]: 02122
      0.01510 [    18]: 21112
      0.01153 [    19]: 21121
      0.01112 [    24]: 22021
      0.01023 [    27]: 22120
      0.00982 [    16]: 20221
      0.00743 [     2]: 02212
      0.00666 [    20]: 21202
      0.00517 [    15]: 20212
      0.00515 [    11]: 12202
      0.00322 [     9]: 12112
ROOT  32:  E=   -1627.1080907220 Eh  3.081 eV  24851.9 cm**-1
      0.25856 [     7]: 11221
      0.11494 [     6]: 11212
      0.10697 [    18]: 21112
      0.06696 [     9]: 12112
      0.06008 [    28]: 22201
      0.05690 [    19]: 21121
      0.03901 [     3]: 02221
      0.03721 [    26]: 22111
      0.03603 [    20]: 21202
      0.03108 [    24]: 22021
      0.02958 [    27]: 22120
      0.02880 [    10]: 12121
      0.02632 [    29]: 22210
      0.01688 [    21]: 21211
      0.01521 [     2]: 02212
      0.01276 [    17]: 21022
      0.00997 [    15]: 20212
      0.00923 [    11]: 12202
      0.00885 [     8]: 12022
      0.00782 [     4]: 10222
      0.00723 [    13]: 12220
      0.00470 [    25]: 22102
      0.00338 [    16]: 20221
      0.00285 [     0]: 01222
      0.00281 [    22]: 21220
ROOT  33:  E=   -1627.1043978901 Eh  3.182 eV  25662.4 cm**-1
      0.10604 [     0]: 01222
      0.09415 [    27]: 22120
      0.09190 [    12]: 12211
      0.09176 [    21]: 21211
      0.06739 [    26]: 22111
      0.06718 [    13]: 12220
      0.05485 [    25]: 22102
      0.05262 [     1]: 02122
      0.05039 [    15]: 20212
      0.04408 [    10]: 12121
      0.04330 [     4]: 10222
      0.03801 [     6]: 11212
      0.02870 [    20]: 21202
      0.02698 [     7]: 11221
      0.02480 [     5]: 11122
      0.02109 [    18]: 21112
      0.02035 [    14]: 20122
      0.02006 [     2]: 02212
      0.01921 [    19]: 21121
      0.01711 [    22]: 21220
      0.00695 [     9]: 12112
      0.00301 [    24]: 22021
      0.00288 [    23]: 22012
      0.00273 [    11]: 12202
ROOT  34:  E=   -1627.1043882886 Eh  3.182 eV  25664.5 cm**-1
      0.14580 [     7]: 11221
      0.13545 [    10]: 12121
      0.12268 [     6]: 11212
      0.08164 [    18]: 21112
      0.06972 [     3]: 02221
      0.06099 [     9]: 12112
      0.05687 [    21]: 21211
      0.05615 [    29]: 22210
      0.04012 [    19]: 21121
      0.02920 [    26]: 22111
      0.02741 [    27]: 22120
      0.02174 [    28]: 22201
      0.02168 [    20]: 21202
      0.01895 [    15]: 20212
      0.01809 [     4]: 10222
      0.01614 [    12]: 12211
      0.01584 [    14]: 20122
      0.01115 [    16]: 20221
      0.00897 [     1]: 02122
      0.00835 [     5]: 11122
      0.00750 [    13]: 12220
      0.00718 [    11]: 12202
      0.00511 [     2]: 02212
      0.00431 [     0]: 01222
      0.00302 [    25]: 22102
      0.00272 [    22]: 21220
ROOT  35:  E=   -1627.0104850179 Eh  5.737 eV  46273.9 cm**-1
      0.18061 [    25]: 22102
      0.15847 [    27]: 22120
      0.14982 [    14]: 20122
      0.13119 [     1]: 02122
      0.06622 [    15]: 20212
      0.05834 [    23]: 22012
      0.03837 [     2]: 02212
      0.02302 [    26]: 22111
      0.02278 [    12]: 12211
      0.02111 [     4]: 10222
      0.01815 [     0]: 01222
      0.01701 [     5]: 11122
      0.01629 [    29]: 22210
      0.01585 [    21]: 21211
      0.01426 [    24]: 22021
      0.01112 [    10]: 12121
      0.00978 [     6]: 11212
      0.00885 [    19]: 21121
      0.00659 [    13]: 12220
      0.00651 [    20]: 21202
      0.00634 [    18]: 21112
      0.00508 [    16]: 20221
      0.00474 [     7]: 11221
      0.00415 [    22]: 21220
      0.00278 [     9]: 12112
ROOT  36:  E=   -1627.0089397911 Eh  5.779 eV  46613.0 cm**-1
      0.22233 [    20]: 21202
      0.13266 [    13]: 12220
      0.12935 [     0]: 01222
      0.12009 [    17]: 21022
      0.07311 [     4]: 10222
      0.05790 [    22]: 21220
      0.05455 [     8]: 12022
      0.02337 [    26]: 22111
      0.01921 [    10]: 12121
      0.01800 [    24]: 22021
      0.01787 [     5]: 11122
      0.01690 [    11]: 12202
      0.01554 [    25]: 22102
      0.01552 [     6]: 11212
      0.01288 [    12]: 12211
      0.01219 [    19]: 21121
      0.01086 [    21]: 21211
      0.01055 [     9]: 12112
      0.00884 [    14]: 20122
      0.00680 [    16]: 20221
      0.00466 [     2]: 02212
      0.00402 [    27]: 22120
      0.00342 [     3]: 02221
      0.00303 [     1]: 02122
      0.00256 [     7]: 11221
ROOT  37:  E=   -1627.0088775819 Eh  5.781 eV  46626.6 cm**-1
      0.18484 [    15]: 20212
      0.13217 [     3]: 02221
      0.11380 [    23]: 22012
      0.09573 [    29]: 22210
      0.07167 [    24]: 22021
      0.06354 [    27]: 22120
      0.04316 [    28]: 22201
      0.04064 [    25]: 22102
      0.04022 [     2]: 02212
      0.03456 [    14]: 20122
      0.03207 [     1]: 02122
      0.02534 [     7]: 11221
      0.02361 [    10]: 12121
      0.01987 [     9]: 12112
      0.01695 [    18]: 21112
      0.01563 [    19]: 21121
      0.01158 [    12]: 12211
      0.00618 [    20]: 21202
      0.00607 [     6]: 11212
      0.00481 [     5]: 11122
      0.00479 [    16]: 20221
      0.00435 [     4]: 10222
ROOT  38:  E=   -1626.9859694595 Eh  6.404 eV  51654.4 cm**-1
      0.34630 [     3]: 02221
      0.12782 [    15]: 20212
      0.11375 [    16]: 20221
      0.06771 [    28]: 22201
      0.05446 [    24]: 22021
      0.05267 [     2]: 02212
      0.04322 [     7]: 11221
      0.04195 [     6]: 11212
      0.03006 [    29]: 22210
      0.01959 [     0]: 01222
      0.01443 [    23]: 22012
      0.01223 [    20]: 21202
      0.01197 [    14]: 20122
      0.01031 [     5]: 11122
      0.00924 [    18]: 21112
      0.00812 [    22]: 21220
      0.00643 [    27]: 22120
      0.00608 [     9]: 12112
      0.00587 [    19]: 21121
      0.00425 [    26]: 22111
      0.00380 [    12]: 12211
      0.00314 [    10]: 12121
      0.00279 [     4]: 10222
ROOT  39:  E=   -1626.9859596960 Eh  6.405 eV  51656.5 cm**-1
      0.35138 [    13]: 12220
      0.11297 [    20]: 21202
      0.09847 [     4]: 10222
      0.08708 [    11]: 12202
      0.07181 [    22]: 21220
      0.04606 [     8]: 12022
      0.04273 [    21]: 21211
      0.03936 [     0]: 01222
      0.03566 [    12]: 12211
      0.02338 [    17]: 21022
      0.01417 [    18]: 21112
      0.01277 [    19]: 21121
      0.01198 [     7]: 11221
      0.01041 [    15]: 20212
      0.00730 [    26]: 22111
      0.00704 [    25]: 22102
      0.00371 [     5]: 11122
      0.00342 [    28]: 22201
      0.00331 [    24]: 22021
      0.00279 [    29]: 22210
      0.00252 [    10]: 12121

                 <<<<<<<<<<<<<<<<<<INITIAL CI STATE CHECK>>>>>>>>>>>>>>>>>>

   E(CAS)= -1627.214809278 Eh DE=    0.000000e+00
   --- Energy gap subspaces: Ext-Act = 1.683   Act-Int = 0.170
   --- current l-shift: Up(Ext-Act) = 1.00   Dn(Act-Int) = 1.83
   N(occ)=  1.40000 1.40000 1.40000 1.40000 1.40000
   ||g|| =     8.333814e-06 Max(G)=    1.878030e-06 Rot=460,0
                     ---- THE CAS-SCF GRADIENT HAS CONVERGED ----
                            --- FINALIZING ORBITALS ---
                    ---- DOING ONE FINAL ITERATION FOR PRINTING ----
   --- d-orbitals (depends on the molecular axis frame)
 L-Center:  0 Co [-0.000, 0.000, 0.000] 
   --- The active space contains 5 d Orbitals : OK
 Setting 35 active MO to AO dz2     (25)
 Setting 36 active MO to AO dxz     (26)
 Setting 37 active MO to AO dyz     (27)
 Setting 38 active MO to AO dx2y2   (28)
 Setting 39 active MO to AO dxy     (29)
   --- Canonicalize Internal Space
   --- Canonicalize External Space

MACRO-ITERATION   2: 
   --- Inactive Energy E0 = -1604.83183840 Eh
   --- All densities will be recomputed
CI-ITERATION   0: 
 -1627.303013967   0.000000000000 (    0.00)
 -1627.302717339   0.000000000000
 -1627.295656889   0.000000000000
 -1627.295440319   0.000000000000
 -1627.295298192   0.000000000000
 -1627.294444754   0.000000000000
 -1627.293767262   0.000000000000
 -1627.227032406   0.000000000000
 -1627.210972082   0.000000000000
 -1627.210508667   0.000000000000
   CI-PROBLEM SOLVED
   DENSITIES MADE
CI-ITERATION   0: 
 -1627.221324296   0.000000000000 (    0.00)
 -1627.221153591   0.000000000000
 -1627.220736853   0.000000000000
 -1627.220635969   0.000000000000
 -1627.219166320   0.000000000000
 -1627.219153352   0.000000000000
 -1627.216902585   0.000000000000
 -1627.209341336   0.000000000000
 -1627.209340242   0.000000000000
 -1627.204255022   0.000000000000
 -1627.202527916   0.000000000000
 -1627.202331941   0.000000000000
 -1627.194091292   0.000000000000
 -1627.193782368   0.000000000000
 -1627.191920744   0.000000000000
 -1627.191837921   0.000000000000
 -1627.188562778   0.000000000000
 -1627.188560068   0.000000000000
 -1627.185956273   0.000000000000
 -1627.185921620   0.000000000000
 -1627.182910331   0.000000000000
 -1627.182151834   0.000000000000
 -1627.182149885   0.000000000000
 -1627.175530089   0.000000000000
 -1627.175343488   0.000000000000
 -1627.174346425   0.000000000000
 -1627.174344571   0.000000000000
 -1627.171584577   0.000000000000
 -1627.114227436   0.000000000000
 -1627.112175431   0.000000000000
 -1627.111866171   0.000000000000
 -1627.108099095   0.000000000000
 -1627.108090796   0.000000000000
 -1627.104397963   0.000000000000
 -1627.104388361   0.000000000000
 -1627.010485094   0.000000000000
 -1627.008939858   0.000000000000
 -1627.008877663   0.000000000000
 -1626.985969530   0.000000000000
 -1626.985959769   0.000000000000
   CI-PROBLEM SOLVED
   DENSITIES MADE
   E(CAS)= -1627.214809354 Eh DE=   -7.641347e-08
   --- Energy gap subspaces: Ext-Act = 0.417   Act-Int = -0.059
   --- current l-shift: Up(Ext-Act) = 1.08   Dn(Act-Int) = 1.56
   N(occ)=  1.40000 1.40000 1.40000 1.40000 1.40000
   ||g|| =     8.334223e-06 Max(G)=    3.300809e-06 Rot=40,34
--------------
CASSCF RESULTS
--------------

Final CASSCF energy       : -1627.214809354 Eh  -44278.7661 eV

----------------
ORBITAL ENERGIES
----------------

  NO   OCC          E(Eh)            E(eV) 
   0   2.0000    -285.768244     -7776.1493 
   1   2.0000     -35.473347      -965.2788 
   2   2.0000     -30.245635      -823.0256 
   3   2.0000     -30.245565      -823.0237 
   4   2.0000     -30.242922      -822.9517 
   5   2.0000     -11.213733      -305.1412 
   6   2.0000     -11.213733      -305.1412 
   7   2.0000     -11.213691      -305.1401 
   8   2.0000     -11.213691      -305.1401 
   9   2.0000     -11.188400      -304.4519 
  10   2.0000     -11.188395      -304.4517 
  11   2.0000      -4.621403      -125.7548 
  12   2.0000      -3.029546       -82.4381 
  13   2.0000      -3.029335       -82.4324 
  14   2.0000      -3.024461       -82.2998 
  15   2.0000      -1.028256       -27.9803 
  16   2.0000      -1.025367       -27.9017 
  17   2.0000      -0.914513       -24.8852 
  18   2.0000      -0.914485       -24.8844 
  19   2.0000      -0.766863       -20.8674 
  20   2.0000      -0.759712       -20.6728 
  21   2.0000      -0.597527       -16.2595 
  22   2.0000      -0.594186       -16.1686 
  23   2.0000      -0.583272       -15.8716 
  24   2.0000      -0.573307       -15.6005 
  25   2.0000      -0.541233       -14.7277 
  26   2.0000      -0.540892       -14.7184 
  27   2.0000      -0.519598       -14.1390 
  28   2.0000      -0.519527       -14.1370 
  29   2.0000      -0.465568       -12.6688 
  30   2.0000      -0.464266       -12.6333 
  31   2.0000      -0.462771       -12.5926 
  32   2.0000      -0.459562       -12.5053 
  33   2.0000      -0.397246       -10.8096 
  34   2.0000      -0.309374        -8.4185 
  35   1.4000      -0.357537        -9.7291 
  36   1.4000      -0.353299        -9.6138 
  37   1.4000      -0.367961       -10.0127 
  38   1.4000      -0.332764        -9.0550 
  39   1.4000      -0.354165        -9.6373 
  40   0.0000       0.084113         2.2888 
[...]
 3 106   43798.6    228.3   0.00000   0.00000   0.00000   0.00000000000012   0.00001   0.92530   0.07469
 3 107   43798.6    228.3   0.00000   0.00004   0.00000   0.00000000000230   0.00000   0.99619   0.00381
 3 108   44094.9    226.8   0.00000   0.00000   0.00000   0.00000000000002   0.00027   0.92863   0.07110
 3 109   44094.9    226.8   0.00000   0.00000   0.00000   0.00000000000011   0.00017   0.95286   0.04696
 3 110   64522.5    155.0   0.00000   0.00000   0.00000   0.00000000000013   0.00000   0.99334   0.00666
 3 111   64522.5    155.0   0.00000   0.00000   0.00000   0.00000000000003   0.00000   0.74530   0.25469
 3 112   64764.3    154.4   0.00000   0.00001   0.00000   0.00000000000032   0.00000   0.97590   0.02409
 3 113   64764.3    154.4   0.00000   0.00000   0.00000   0.00000000000010   0.00000   0.96792   0.03208
 3 114   65088.7    153.6   0.00000   0.00000   0.00000   0.00000000000006   0.00000   0.20367   0.79632
 3 115   65088.7    153.6   0.00000   0.00000   0.00000   0.00000000000003   0.00000   0.05394   0.94606
 3 116   69697.1    143.5   0.00000   0.00000   0.00000   0.00000000000003   0.00000   0.02840   0.97160
 3 117   69697.1    143.5   0.00000   0.00000   0.00000   0.00000000000003   0.00000   0.07185   0.92814
 3 118   70182.2    142.5   0.00000   0.00005   0.00000   0.00000000000300   0.00000   0.99314   0.00686
 3 119   70182.2    142.5   0.00000   0.00000   0.00000   0.00000000000027   0.00001   0.92216   0.07784

Done

                 =============================
                 AB INITIO LIGAND FIELD THEORY
                       d7 configuration
                          2 CI blocks
                         MOs 35 to 39
                 =============================

Metal/Atom center is atom 0
orbital phases =   1.0   1.0   1.0   1.0   1.0 
Metal/Atom d-orbital parts of active orbitals
Shell 15
             35        36        37        38        39
dz2     :  0.605747 -0.000314 -0.000010 -0.000887  0.000025
dxz     : -0.004214  0.615836  0.000048 -0.000122 -0.000004
dyz     : -0.000079  0.000209  0.613624 -0.000006  0.000038
dx2y2   :  0.029557  0.005112  0.000044  0.587550  0.000010
dxy     :  0.000409  0.000042  0.000644 -0.000398  0.616108
Shell 16
             35        36        37        38        39
dz2     :  0.403744  0.000409  0.000024  0.000712 -0.000031
dxz     : -0.002330  0.406645 -0.000046  0.000121 -0.000016
dyz     : -0.000039  0.000058  0.409965  0.000014 -0.000024
dx2y2   :  0.021215  0.003414  0.000017  0.390029  0.000006
dxy     :  0.000230  0.000014  0.000336 -0.000283  0.406618
Shell 17
             35        36        37        38        39
dz2     :  0.220233 -0.000475 -0.000124 -0.001074  0.000094
dxz     : -0.000867  0.223915  0.000024 -0.000773  0.000094
dyz     : -0.000022  0.000096  0.221686 -0.000076  0.000418
dx2y2   :  0.008172  0.002529  0.000166  0.214588 -0.000028
dxy     :  0.000184  0.000112  0.000858 -0.000050  0.225346
Shell 20
             35        36        37        38        39
dz2     :  0.012081  0.001714  0.000034  0.009751 -0.000506
dxz     : -0.003403  0.016521  0.000312  0.000409 -0.000475
dyz     : -0.000162 -0.000579  0.017943  0.000296 -0.003259
dx2y2   :  0.012887  0.002222 -0.000052 -0.004042 -0.000417
dxy     :  0.000096 -0.000504 -0.001140 -0.000134  0.009211

Adjusting phases of one-electron integrals               ... done
Adjusting phases of two-electron integrals               ... done


-----------------------------------------------------------------
Computing F0s from 2-electron integrals                  ... done 
-----------------------------------------------------------------
F0   =  0.881757182 a.u. =    23.994 eV =  193523.3 cm**-1
-----------------------------------------------------------------

Preparing for fit                                        ... done
Making fit matrices                                      ... done
Calculating ab initio Hamiltonian matrices               ... 
Calculating fit matrices                                 ... done
Fitting                                                  ... done

------------------------------
AILFT MATRIX ELEMENTS (CASSCF)
--------------------------------

Ligand field one-electron matrix VLFT (a.u.) : 
Orbital          dz2        dxz        dyz        dx2-y2     dxy
  dz2         -5.782380  -0.001167  -0.000035  -0.010147   0.000024 
  dxz         -0.001167  -5.775007   0.000220  -0.001418  -0.000054 
  dyz         -0.000035   0.000220  -5.788160  -0.000012  -0.000277 
  dx2-y2      -0.010147  -0.001418  -0.000012  -5.769253   0.000098 
  dxy          0.000024  -0.000054  -0.000277   0.000098  -5.775671 

-------------------------------------------------
Slater-Condon Parameters (electronic repulsion) : 
-------------------------------------------------
F0dd(from 2el Ints)     =  0.881757182 a.u. =    23.994 eV =  193523.3 cm**-1 (fixed)
F2dd                    =  0.397175148 a.u. =    10.808 eV =   87169.9 cm**-1
F4dd                    =  0.253616406 a.u. =     6.901 eV =   55662.4 cm**-1
-------------------
Racah Parameters : 
-------------------
A(F0dd from 2el Ints)   =  0.853577581 a.u. =    23.227 eV =  187338.6 cm**-1
B                       =  0.005230146 a.u. =     0.142 eV =    1147.9 cm**-1
C                       =  0.020128286 a.u. =     0.548 eV =    4417.6 cm**-1
C/B                     =  3.849
-------------------------------------------------------------------------------

-----------------------------------------
The ligand field one electron eigenfunctions:
-----------------------------------------
Orbital    Energy (eV)  Energy(cm-1)      dz2        dxz        dyz        dx2-y2     dxy
    1          0.000        0.0         0.111562  -0.000108   0.991694   0.060357   0.021315 
    2          0.001       10.8        -0.862114  -0.129968   0.125613  -0.473319   0.007644 
    3          0.340     2743.7        -0.003198   0.074226  -0.020819  -0.003980   0.997011 
    4          0.363     2930.3         0.142703  -0.986832  -0.018194   0.007411   0.073575 
    5          0.666     5373.1        -0.473222  -0.061337  -0.000397   0.878781   0.006548 
Ligand field orbitals were stored in rho.casscf.lft.gbw

Calculating ligand field Hamiltonian matrices          ... done
Diagonalizing and fitting the ligand field Hamiltonian ... done
Calculating statistical parameters                     ... done

Reference energy AI-LFT =    -22.472165682 au
Reference energy AI     =    -22.471175567 au

------------------------------------------------
COMPARISON OF AB INITIO AND LIGAND FIELD RESULTS
------------------------------------------------

Block   1
---------
   AI-Root   0: E(AI)=    0.000 eV -> LF-Root   0:     0.000 eV    S= 0.999 Delta=    0.000 eV
   AI-Root   1: E(AI)=    0.008 eV -> LF-Root   1:     0.008 eV    S= 1.000 Delta=    0.000 eV
   AI-Root   2: E(AI)=    0.200 eV -> LF-Root   2:     0.331 eV    S= 0.788 Delta=   -0.130 eV
   AI-Root   3: E(AI)=    0.206 eV -> LF-Root   3:     0.323 eV    S= 0.974 Delta=   -0.117 eV
   AI-Root   4: E(AI)=    0.210 eV -> LF-Root   4:     0.181 eV    S= 0.973 Delta=    0.029 eV
   AI-Root   5: E(AI)=    0.233 eV -> LF-Root   5:     0.215 eV    S= 0.994 Delta=    0.018 eV
   AI-Root   6: E(AI)=    0.252 eV -> LF-Root   6:     0.241 eV    S= 0.786 Delta=    0.011 eV
   AI-Root   7: E(AI)=    2.068 eV -> LF-Root   7:     1.980 eV    S= 0.999 Delta=    0.088 eV
   AI-Root   8: E(AI)=    2.505 eV -> LF-Root   8:     2.593 eV    S= 0.980 Delta=   -0.088 eV
   AI-Root   9: E(AI)=    2.517 eV -> LF-Root   9:     2.583 eV    S= 0.981 Delta=   -0.066 eV
   (Dropping RMS error for the reference energy)
   RMS error for this block =     0.076 eV =     611.9 cm**-1 

Block   2
---------
   AI-Root   0: E(AI)=    2.223 eV -> LF-Root   0:     2.247 eV    S= 0.986 Delta=   -0.025 eV
   AI-Root   1: E(AI)=    2.228 eV -> LF-Root   1:     2.251 eV    S= 0.987 Delta=   -0.024 eV
   AI-Root   2: E(AI)=    2.239 eV -> LF-Root   2:     2.365 eV    S= 0.972 Delta=   -0.126 eV
   AI-Root   3: E(AI)=    2.242 eV -> LF-Root   3:     2.369 eV    S= 0.942 Delta=   -0.127 eV
   AI-Root   4: E(AI)=    2.282 eV -> LF-Root   4:     2.304 eV    S= 0.982 Delta=   -0.022 eV
   AI-Root   5: E(AI)=    2.282 eV -> LF-Root   5:     2.309 eV    S= 0.970 Delta=   -0.027 eV
   AI-Root   6: E(AI)=    2.343 eV -> LF-Root   6:     2.338 eV    S= 0.976 Delta=    0.005 eV
   AI-Root   7: E(AI)=    2.549 eV -> LF-Root   7:     2.548 eV    S= 0.942 Delta=    0.001 eV
   AI-Root   8: E(AI)=    2.549 eV -> LF-Root   8:     2.548 eV    S= 0.942 Delta=    0.001 eV
   AI-Root   9: E(AI)=    2.687 eV -> LF-Root   9:     2.808 eV    S= 0.942 Delta=   -0.121 eV
   AI-Root  10: E(AI)=    2.734 eV -> LF-Root  10:     2.793 eV    S= 0.993 Delta=   -0.058 eV
   AI-Root  11: E(AI)=    2.740 eV -> LF-Root  11:     2.826 eV    S= 0.944 Delta=   -0.086 eV
   AI-Root  12: E(AI)=    2.964 eV -> LF-Root  12:     2.958 eV    S= 0.987 Delta=    0.006 eV
   AI-Root  13: E(AI)=    2.972 eV -> LF-Root  13:     2.967 eV    S= 0.989 Delta=    0.006 eV
   AI-Root  14: E(AI)=    3.023 eV -> LF-Root  14:     3.018 eV    S= 0.991 Delta=    0.005 eV
   AI-Root  15: E(AI)=    3.025 eV -> LF-Root  15:     3.020 eV    S= 0.995 Delta=    0.005 eV
   AI-Root  16: E(AI)=    3.114 eV -> LF-Root  16:     3.077 eV    S= 0.996 Delta=    0.037 eV
   AI-Root  17: E(AI)=    3.114 eV -> LF-Root  17:     3.078 eV    S= 0.994 Delta=    0.037 eV
   AI-Root  18: E(AI)=    3.185 eV -> LF-Root  18:     3.232 eV    S= 0.921 Delta=   -0.047 eV
   AI-Root  19: E(AI)=    3.186 eV -> LF-Root  19:     3.234 eV    S= 0.944 Delta=   -0.048 eV
   AI-Root  20: E(AI)=    3.268 eV -> LF-Root  20:     3.261 eV    S= 0.964 Delta=    0.007 eV
   AI-Root  21: E(AI)=    3.289 eV -> LF-Root  21:     3.273 eV    S= 0.959 Delta=    0.016 eV
   AI-Root  22: E(AI)=    3.289 eV -> LF-Root  22:     3.274 eV    S= 0.960 Delta=    0.015 eV
   AI-Root  23: E(AI)=    3.469 eV -> LF-Root  23:     3.536 eV    S= 0.953 Delta=   -0.067 eV
   AI-Root  24: E(AI)=    3.474 eV -> LF-Root  24:     3.544 eV    S= 0.995 Delta=   -0.070 eV
   AI-Root  25: E(AI)=    3.501 eV -> LF-Root  25:     3.599 eV    S= 1.000 Delta=   -0.097 eV
   AI-Root  26: E(AI)=    3.501 eV -> LF-Root  26:     3.599 eV    S= 0.999 Delta=   -0.097 eV
   AI-Root  27: E(AI)=    3.576 eV -> LF-Root  27:     3.529 eV    S= 0.956 Delta=    0.048 eV
   AI-Root  28: E(AI)=    5.137 eV -> LF-Root  28:     5.180 eV    S= 0.999 Delta=   -0.043 eV
   AI-Root  29: E(AI)=    5.193 eV -> LF-Root  29:     5.229 eV    S= 0.998 Delta=   -0.036 eV
   AI-Root  30: E(AI)=    5.201 eV -> LF-Root  30:     5.236 eV    S= 0.999 Delta=   -0.034 eV
   AI-Root  31: E(AI)=    5.304 eV -> LF-Root  31:     5.327 eV    S= 0.998 Delta=   -0.023 eV
   AI-Root  32: E(AI)=    5.304 eV -> LF-Root  32:     5.327 eV    S= 0.998 Delta=   -0.023 eV
   AI-Root  33: E(AI)=    5.405 eV -> LF-Root  33:     5.443 eV    S= 0.999 Delta=   -0.038 eV
   AI-Root  34: E(AI)=    5.405 eV -> LF-Root  34:     5.443 eV    S= 0.999 Delta=   -0.038 eV
   AI-Root  35: E(AI)=    7.960 eV -> LF-Root  35:     7.858 eV    S= 0.994 Delta=    0.102 eV
   AI-Root  36: E(AI)=    8.002 eV -> LF-Root  36:     8.082 eV    S= 0.981 Delta=   -0.080 eV
   AI-Root  37: E(AI)=    8.004 eV -> LF-Root  37:     8.065 eV    S= 0.986 Delta=   -0.062 eV
   AI-Root  38: E(AI)=    8.627 eV -> LF-Root  38:     8.609 eV    S= 1.000 Delta=    0.018 eV
   AI-Root  39: E(AI)=    8.627 eV -> LF-Root  39:     8.610 eV    S= 1.000 Delta=    0.018 eV
   RMS error for this block =     0.057 eV =     455.9 cm**-1 

Total RMS error g=     0.061 eV =     488.3 cm**-1
Note: Dropped RMS error for the reference energy.

Confidence intervals (95%) computed from the square root of the
diagonal elements of the covariance matrix:
H(dz2   ,dz2   )=  0.000353407 a.u. =     0.010 eV =      77.6 cm**-1
H(dxz   ,dz2   )=  0.000298987 a.u. =     0.008 eV =      65.6 cm**-1
H(dxz   ,dxz   )=  0.000353407 a.u. =     0.010 eV =      77.6 cm**-1
H(dyz   ,dz2   )=  0.000298987 a.u. =     0.008 eV =      65.6 cm**-1
H(dyz   ,dxz   )=  0.000298987 a.u. =     0.008 eV =      65.6 cm**-1
H(dyz   ,dyz   )=  0.000353407 a.u. =     0.010 eV =      77.6 cm**-1
H(dx2-y2,dz2   )=  0.000298987 a.u. =     0.008 eV =      65.6 cm**-1
H(dx2-y2,dxz   )=  0.000298987 a.u. =     0.008 eV =      65.6 cm**-1
H(dx2-y2,dyz   )=  0.000298987 a.u. =     0.008 eV =      65.6 cm**-1
H(dx2-y2,dx2-y2)=  0.000353407 a.u. =     0.010 eV =      77.6 cm**-1
H(dxy   ,dz2   )=  0.000298987 a.u. =     0.008 eV =      65.6 cm**-1
H(dxy   ,dxz   )=  0.000298987 a.u. =     0.008 eV =      65.6 cm**-1
H(dxy   ,dyz   )=  0.000298987 a.u. =     0.008 eV =      65.6 cm**-1
H(dxy   ,dx2-y2)=  0.000298987 a.u. =     0.008 eV =      65.6 cm**-1
H(dxy   ,dxy   )=  0.000353407 a.u. =     0.010 eV =      77.6 cm**-1
F2dd            =  0.001269149 a.u. =     0.035 eV =     278.5 cm**-1
F4dd            =  0.001840716 a.u. =     0.050 eV =     404.0 cm**-1
Pearson's correlation coefficient =    1.000 (should be close to 1)

----------------------------------------------
SPIN ORBIT COUPLING (based on CASSCF orbitals)
----------------------------------------------

AI-SOC-X integrals (cm-1)
                  0          1          2          3          4    
      0      -0.000000  -0.044060 902.630549   0.059951  -3.573047
      1       0.044060  -0.000000   4.376149  -0.504170 516.922090
      2     -902.630549  -4.376149  -0.000000 -490.313969   0.004269
      3      -0.059951   0.504170 490.313969   0.000000  -0.014369
      4       3.573047 -516.922090  -0.004269   0.014369   0.000000
AI-SOC-Y integrals (cm-1)
                  0          1          2          3          4    
      0       0.000000 -855.849069   0.280848   3.434005   0.076365
      1     855.849069   0.000000  -0.016023 -493.339035  -0.139882
      2      -0.280848   0.016023  -0.000000   0.306531 -515.813124
      3      -3.434005 493.339035  -0.306531   0.000000   0.004252
      4      -0.076365   0.139882 515.813124  -0.004252   0.000000
AI-SOC-Z integrals (cm-1)
                  0          1          2          3          4    
      0       0.000000  -0.058391   3.520775   0.689608 -50.604474
      1       0.058391   0.000000 -515.674616   0.074478  -8.714838
      2      -3.520775 515.674616   0.000000   0.977621  -0.076622
      3      -0.689608  -0.074478  -0.977621  -0.000000 -986.185705
      4      50.604474   8.714838   0.076622 986.185705   0.000000

Fit to the SOC matrix elements
a = 15.000000
b =     0.936 eV =    7550.2 cm**-1
SOC constant zeta =     0.062 eV =     503.3 cm**-1


LF-SOC-X integrals (cm-1)
                  0          1          2          3          4    
      0       0.000000  -0.000000 871.823188  -0.000000  -0.000000
      1       0.000000   0.000000  -0.000000  -0.000000 503.347352
      2     -871.823188   0.000000   0.000000 -503.347352  -0.000000
      3       0.000000   0.000000 503.347352   0.000000  -0.000000
      4       0.000000 -503.347352   0.000000   0.000000   0.000000
LF-SOC-Y integrals (cm-1)
                  0          1          2          3          4    
      0       0.000000 -871.823188  -0.000000  -0.000000  -0.000000
      1     871.823188   0.000000  -0.000000 -503.347352  -0.000000
      2       0.000000   0.000000   0.000000  -0.000000 -503.347352
      3       0.000000 503.347352   0.000000   0.000000  -0.000000
      4       0.000000   0.000000 503.347352   0.000000   0.000000
LF-SOC-Z integrals (cm-1)
                  0          1          2          3          4    
      0       0.000000  -0.000000  -0.000000  -0.000000  -0.000000
      1       0.000000   0.000000 -503.347352  -0.000000  -0.000000
      2       0.000000 503.347352   0.000000  -0.000000  -0.000000
      3       0.000000   0.000000   0.000000   0.000000 -1006.694705
      4       0.000000   0.000000   0.000000 1006.694705   0.000000

RMS error of nonzero matrix elements =   15.9 cm**-1


-----SOC-CONSTANTS-----
---All Values in cm-1---
ZETA_D = 503.35 
------------------------




---AILFT COMPLETED SUCCESFULLY!---

--------------
CASSCF TIMINGS
--------------

Total time                       ...       63.5 sec
Sum of individual times          ...       56.9 sec ( 89.6%)

Calculation of AO operators
   F(Core) operator              ...       11.6 sec ( 18.3%)
   G(Act) operator               ...        9.4 sec ( 14.8%)
   J(AO) operators               ...        0.0 sec (  0.0%)
Calculation of MO transformed quantities
   J(MO) operators               ...        1.8 sec (  2.8%)
   (pq|rs) integrals             ...        0.0 sec (  0.0%)
   AO->MO one electron integrals ...        0.1 sec (  0.2%)
Configuration interaction steps
   CI-setup phase                ...        0.0 sec (  0.0%)
   CI-solution phase             ...        0.1 sec (  0.1%)
   Generation of densities       ...        0.0 sec (  0.0%)
Orbital improvement steps
   Orbital gradient              ...        0.0 sec (  0.0%)
Properties                       ...       23.2 sec ( 36.6%)
   SOC integral calculation      ...       10.6 sec ( 16.6%)
   SSC RMEs (incl. integrals)    ...        0.0 sec (  0.0%)
   SOC RMEs                      ...        0.1 sec (  0.1%)

Maximum memory used throughout the entire CASSCF-calculation: 482.1 MB

-------------------------   --------------------
FINAL SINGLE POINT ENERGY     -1627.214809354478
-------------------------   --------------------


                            ***************************************
                            *     ORCA property calculations      *
                            ***************************************

                                    ---------------------
                                    Active property flags
                                    ---------------------
   (+) Dipole Moment


------------------------------------------------------------------------------
                       ORCA ELECTRIC PROPERTIES CALCULATION
------------------------------------------------------------------------------

Dipole Moment Calculation                       ... on
Quadrupole Moment Calculation                   ... off
Polarizability Calculation                      ... off
GBWName                                         ... rho.gbw
Electron density                                ... rho.scfp
The origin for moment calculation is the CENTER OF MASS  = (-0.000007,  0.000008  0.000007)

-------------
DIPOLE MOMENT
-------------
                                X             Y             Z
Electronic contribution:     -0.00007       0.00010       0.00010
Nuclear contribution   :      0.00008      -0.00009      -0.00008
                        -----------------------------------------
Total Dipole Moment    :      0.00001       0.00000       0.00001
                        -----------------------------------------
Magnitude (a.u.)       :      0.00002
Magnitude (Debye)      :      0.00004



--------------------
Rotational spectrum 
--------------------
 
Rotational constants in cm-1:     0.133050     0.030857     0.026296 
Rotational constants in MHz :  3988.745858   925.075320   788.321108 

 Dipole components along the rotational axes: 
x,y,z [a.u.] :    -0.000011    -0.000005    -0.000010 
x,y,z [Debye]:    -0.000029    -0.000014    -0.000026 

 

Timings for individual modules:

Sum of individual times         ...       75.374 sec (=   1.256 min)
GTO integral calculation        ...        3.363 sec (=   0.056 min)   4.5 %
Relativistic integrals          ...        1.696 sec (=   0.028 min)   2.3 %
SCF iterations                  ...        2.328 sec (=   0.039 min)   3.1 %
CASSCF iterations               ...       67.987 sec (=   1.133 min)  90.2 %
                             ****ORCA TERMINATED NORMALLY****
TOTAL RUN TIME: 0 days 0 hours 1 minutes 18 seconds 995 msec
