
                                 *****************
                                 * O   R   C   A *
                                 *****************

                                            #,                                       
                                            ###                                      
                                            ####                                     
                                            #####                                    
                                            ######                                   
                                           ########,                                 
                                     ,,################,,,,,                         
                               ,,#################################,,                 
                          ,,##########################################,,             
                       ,#########################################, ''#####,          
                    ,#############################################,,   '####,        
                  ,##################################################,,,,####,       
                ,###########''''           ''''###############################       
              ,#####''   ,,,,##########,,,,          '''####'''          '####       
            ,##' ,,,,###########################,,,                        '##       
           ' ,,###''''                  '''############,,,                           
         ,,##''                                '''############,,,,        ,,,,,,###''
      ,#''                                            '''#######################'''  
     '                                                          ''''####''''         
             ,#######,   #######,   ,#######,      ##                                
            ,#'     '#,  ##    ##  ,#'     '#,    #''#        ######   ,####,        
            ##       ##  ##   ,#'  ##            #'  '#       #        #'  '#        
            ##       ##  #######   ##           ,######,      #####,   #    #        
            '#,     ,#'  ##    ##  '#,     ,#' ,#      #,         ##   #,  ,#        
             '#######'   ##     ##  '#######'  #'      '#     #####' # '####'        



                  #######################################################
                  #                        -***-                        #
                  #          Department of theory and spectroscopy      #
                  #    Directorship and core code : Frank Neese         #
                  #        Max Planck Institute fuer Kohlenforschung    #
                  #                Kaiser Wilhelm Platz 1               #
                  #                 D-45470 Muelheim/Ruhr               #
                  #                      Germany                        #
                  #                                                     #
                  #                  All rights reserved                #
                  #                        -***-                        #
                  #######################################################


                         Program Version 5.0.4 -  RELEASE  -


 With contributions from (in alphabetic order):
   Daniel Aravena         : Magnetic Suceptibility
   Michael Atanasov       : Ab Initio Ligand Field Theory (pilot matlab implementation)
   Alexander A. Auer      : GIAO ZORA, VPT2 properties, NMR spectrum
   Ute Becker             : Parallelization
   Giovanni Bistoni       : ED, misc. LED, open-shell LED, HFLD
   Martin Brehm           : Molecular dynamics
   Dmytro Bykov           : SCF Hessian
   Vijay G. Chilkuri      : MRCI spin determinant printing, contributions to CSF-ICE
   Dipayan Datta          : RHF DLPNO-CCSD density
   Achintya Kumar Dutta   : EOM-CC, STEOM-CC
   Dmitry Ganyushin       : Spin-Orbit,Spin-Spin,Magnetic field MRCI
   Miquel Garcia          : C-PCM and meta-GGA Hessian, CC/C-PCM, Gaussian charge scheme
   Yang Guo               : DLPNO-NEVPT2, F12-NEVPT2, CIM, IAO-localization
   Andreas Hansen         : Spin unrestricted coupled pair/coupled cluster methods
   Benjamin Helmich-Paris : MC-RPA, TRAH-SCF, COSX integrals
   Lee Huntington         : MR-EOM, pCC
   Robert Izsak           : Overlap fitted RIJCOSX, COSX-SCS-MP3, EOM
   Marcus Kettner         : VPT2
   Christian Kollmar      : KDIIS, OOCD, Brueckner-CCSD(T), CCSD density, CASPT2, CASPT2-K
   Simone Kossmann        : Meta GGA functionals, TD-DFT gradient, OOMP2, MP2 Hessian
   Martin Krupicka        : Initial AUTO-CI
   Lucas Lang             : DCDCAS
   Marvin Lechner         : AUTO-CI (C++ implementation), FIC-MRCC
   Dagmar Lenk            : GEPOL surface, SMD
   Dimitrios Liakos       : Extrapolation schemes; Compound Job, initial MDCI parallelization
   Dimitrios Manganas     : Further ROCIS development; embedding schemes
   Dimitrios Pantazis     : SARC Basis sets
   Anastasios Papadopoulos: AUTO-CI, single reference methods and gradients
   Taras Petrenko         : DFT Hessian,TD-DFT gradient, ASA, ECA, R-Raman, ABS, FL, XAS/XES, NRVS
   Peter Pinski           : DLPNO-MP2, DLPNO-MP2 Gradient
   Christoph Reimann      : Effective Core Potentials
   Marius Retegan         : Local ZFS, SOC
   Christoph Riplinger    : Optimizer, TS searches, QM/MM, DLPNO-CCSD(T), (RO)-DLPNO pert. Triples
   Tobias Risthaus        : Range-separated hybrids, TD-DFT gradient, RPA, STAB
   Michael Roemelt        : Original ROCIS implementation
   Masaaki Saitow         : Open-shell DLPNO-CCSD energy and density
   Barbara Sandhoefer     : DKH picture change effects
   Avijit Sen             : IP-ROCIS
   Kantharuban Sivalingam : CASSCF convergence, NEVPT2, FIC-MRCI
   Bernardo de Souza      : ESD, SOC TD-DFT
   Georgi Stoychev        : AutoAux, RI-MP2 NMR, DLPNO-MP2 response
   Willem Van den Heuvel  : Paramagnetic NMR
   Boris Wezisla          : Elementary symmetry handling
   Frank Wennmohs         : Technical directorship


 We gratefully acknowledge several colleagues who have allowed us to
 interface, adapt or use parts of their codes:
   Stefan Grimme, W. Hujo, H. Kruse, P. Pracht,  : VdW corrections, initial TS optimization,
                  C. Bannwarth, S. Ehlert          DFT functionals, gCP, sTDA/sTD-DF
   Ed Valeev, F. Pavosevic, A. Kumar             : LibInt (2-el integral package), F12 methods
   Garnet Chan, S. Sharma, J. Yang, R. Olivares  : DMRG
   Ulf Ekstrom                                   : XCFun DFT Library
   Mihaly Kallay                                 : mrcc  (arbitrary order and MRCC methods)
   Jiri Pittner, Ondrej Demel                    : Mk-CCSD
   Frank Weinhold                                : gennbo (NPA and NBO analysis)
   Christopher J. Cramer and Donald G. Truhlar   : smd solvation model
   Lars Goerigk                                  : TD-DFT with DH, B97 family of functionals
   V. Asgeirsson, H. Jonsson                     : NEB implementation
   FAccTs GmbH                                   : IRC, NEB, NEB-TS, DLPNO-Multilevel, CI-OPT
                                                   MM, QMMM, 2- and 3-layer-ONIOM, Crystal-QMMM,
                                                   LR-CPCM, SF, NACMEs, symmetry and pop. for TD-DFT,
                                                   nearIR, NL-DFT gradient (VV10), updates on ESD,
                                                   ML-optimized integration grids
   S Lehtola, MJT Oliveira, MAL Marques          : LibXC Library
   Liviu Ungur et al                             : ANISO software


 Your calculation uses the libint2 library for the computation of 2-el integrals
 For citations please refer to: http://libint.valeyev.net

 Your ORCA version has been built with support for libXC version: 5.1.0
 For citations please refer to: https://tddft.org/programs/libxc/

 This ORCA versions uses:
   CBLAS   interface :  Fast vector & matrix operations
   LAPACKE interface :  Fast linear algebra routines
   SCALAPACK package :  Parallel linear algebra routines
   Shared memory     :  Shared parallel matrices
   BLAS/LAPACK       :  OpenBLAS 0.3.15  USE64BITINT DYNAMIC_ARCH NO_AFFINITY Zen SINGLE_THREADED
        Core in use  :  Zen
   Copyright (c) 2011-2014, The OpenBLAS Project




***************************************
The coordinates will be read from file: geo.xyz
***************************************


================================================================================

----- Orbital basis set information -----
Your calculation utilizes the basis: DKH-def2-TZVPP
   Exponents from def2-TZVPP [F. Weigend and R. Ahlrichs, Phys. Chem. Chem. Phys. 7, 3297 (2005)],
   recontracted for DKH2 by D. A. Pantazis.

----- AuxJ basis set information -----
Your calculation utilizes the AutoAux generation procedure.
  G. L. Stoychev, A. A. Auer, F. Neese, J. Chem. Theory Comput. 13, 554 (2017)

----- AuxC basis set information -----
Your calculation utilizes the AutoAux generation procedure.
  G. L. Stoychev, A. A. Auer, F. Neese, J. Chem. Theory Comput. 13, 554 (2017)

----- AuxJK basis set information -----
Your calculation utilizes the AutoAux generation procedure.
  G. L. Stoychev, A. A. Auer, F. Neese, J. Chem. Theory Comput. 13, 554 (2017)

================================================================================
                                        WARNINGS
                       Please study these warnings very carefully!
================================================================================


INFO   : the flag for use of the SHARK integral package has been found!

================================================================================
                                       INPUT FILE
================================================================================
NAME = rho.inp
|  1> !CASSCF  DKH DKH-def2-TZVPP  RIJCOSX NoSFitting VeryTightSCF autoaux moread SlowConv
|  2> %moinp "orb.gbw"
|  3> %pal
|  4> nprocs 10
|  5> end
|  6> %maxcore 4000
|  7> # swap
|  8> #%scf
|  9> # Rotate
| 10> #  { 37, 31 }
| 11> # end
| 12> #end
| 13> #
| 14> %rel
| 15>  picturechange 2
| 16> end
| 17> %casscf
| 18>  nel  7
| 19>  norb 5
| 20>  mult 4,2
| 21>  nroots 10,40
| 22>  maxiter 100
| 23>  ActOrbs dOrbs
| 24>  rel
| 25>   printlevel 3
| 26>   dosoc true
| 27>   gtensor true
| 28>   quad true
| 29>  end
| 30> end
| 31> * xyzfile 2 4 geo.xyz *
| 32> 
| 33>                          ****END OF INPUT****
================================================================================

                       ****************************
                       * Single Point Calculation *
                       ****************************

---------------------------------
CARTESIAN COORDINATES (ANGSTROEM)
---------------------------------
  Co     0.000095    0.039155    0.007878
  C      2.090037    0.001114   -0.001826
  F      2.789239    1.007095    0.301641
  F      2.760860   -1.024487   -0.301143
  C     -2.090220   -0.003091   -0.000094
  F     -2.782470    0.890401   -0.562075
  F     -2.767540   -0.910187    0.555618

----------------------------
CARTESIAN COORDINATES (A.U.)
----------------------------
  NO LB      ZA    FRAG     MASS         X           Y           Z
   0 Co   27.0000    0    58.930    0.000179    0.073992    0.014887
   1 C     6.0000    0    12.011    3.949598    0.002105   -0.003450
   2 F     9.0000    0    18.998    5.270897    1.903133    0.570019
   3 F     9.0000    0    18.998    5.217269   -1.935999   -0.569077
   4 C     6.0000    0    12.011   -3.949943   -0.005841   -0.000177
   5 F     9.0000    0    18.998   -5.258107    1.682615   -1.062167
   6 F     9.0000    0    18.998   -5.229893   -1.720005    1.049967

--------------------------------
INTERNAL COORDINATES (ANGSTROEM)
--------------------------------
 Co     0   0   0     0.000000000000     0.00000000     0.00000000
 C      1   0   0     2.090311136786     0.00000000     0.00000000
 F      2   1   0     1.262130133814   122.56569408     0.00000000
 F      2   1   3     1.261527050526   123.19961433   179.53692376
 C      1   2   3     2.090756669076   177.74672551   184.34122420
 F      5   1   2     1.262284529253   122.39068234   224.07020263
 F      5   1   2     1.261111364326   123.35482487    44.42346541

---------------------------
INTERNAL COORDINATES (A.U.)
---------------------------
 Co     0   0   0     0.000000000000     0.00000000     0.00000000
 C      1   0   0     3.950115583212     0.00000000     0.00000000
 F      2   1   0     2.385080298278   122.56569408     0.00000000
 F      2   1   3     2.383940636028   123.19961433   179.53692376
 C      1   2   3     3.950957517223   177.74672551   184.34122420
 F      5   1   2     2.385372063374   122.39068234   224.07020263
 F      5   1   2     2.383155102952   123.35482487    44.42346541

---------------------
BASIS SET INFORMATION
---------------------
There are 3 groups of distinct atoms

 Group   1 Type Co  : 17s12p7d2f1g contracted to 10s7p4d2f1g pattern {8111111111/6111111/4111/11/1}
 Group   2 Type C   : 11s6p2d1f contracted to 6s3p2d1f pattern {611111/411/11/1}
 Group   3 Type F   : 11s6p2d1f contracted to 6s3p2d1f pattern {611111/411/11/1}

Atom   0Co   basis set group =>   1
Atom   1C    basis set group =>   2
Atom   2F    basis set group =>   3
Atom   3F    basis set group =>   3
Atom   4C    basis set group =>   2
Atom   5F    basis set group =>   3
Atom   6F    basis set group =>   3
---------------------------------
AUXILIARY/J BASIS SET INFORMATION
---------------------------------
There are 3 groups of distinct atoms

 Group   1 Type Co  : 22s18p17d17f16g6h3i contracted to 22s18p17d17f16g6h3i pattern {1111111111111111111111/111111111111111111/11111111111111111/11111111111111111/1111111111111111/111111/111}
 Group   2 Type C   : 16s13p12d7f3g contracted to 16s13p12d7f3g pattern {1111111111111111/1111111111111/111111111111/1111111/111}
 Group   3 Type F   : 16s13p12d7f3g contracted to 16s13p12d7f3g pattern {1111111111111111/1111111111111/111111111111/1111111/111}

Atom   0Co   basis set group =>   1
Atom   1C    basis set group =>   2
Atom   2F    basis set group =>   3
Atom   3F    basis set group =>   3
Atom   4C    basis set group =>   2
Atom   5F    basis set group =>   3
Atom   6F    basis set group =>   3
---------------------------------
AUXILIARY/C BASIS SET INFORMATION
---------------------------------
There are 3 groups of distinct atoms

 Group   1 Type Co  : 22s18p17d17f16g6h3i contracted to 22s18p17d17f16g6h3i pattern {1111111111111111111111/111111111111111111/11111111111111111/11111111111111111/1111111111111111/111111/111}
 Group   2 Type C   : 16s13p12d7f3g contracted to 16s13p12d7f3g pattern {1111111111111111/1111111111111/111111111111/1111111/111}
 Group   3 Type F   : 16s13p12d7f3g contracted to 16s13p12d7f3g pattern {1111111111111111/1111111111111/111111111111/1111111/111}

Atom   0Co   basis set group =>   1
Atom   1C    basis set group =>   2
Atom   2F    basis set group =>   3
Atom   3F    basis set group =>   3
Atom   4C    basis set group =>   2
Atom   5F    basis set group =>   3
Atom   6F    basis set group =>   3
----------------------------------
AUXILIARY/JK BASIS SET INFORMATION
----------------------------------
There are 3 groups of distinct atoms

 Group   1 Type Co  : 22s18p17d17f16g6h3i contracted to 22s18p17d17f16g6h3i pattern {1111111111111111111111/111111111111111111/11111111111111111/11111111111111111/1111111111111111/111111/111}
 Group   2 Type C   : 16s13p12d7f3g contracted to 16s13p12d7f3g pattern {1111111111111111/1111111111111/111111111111/1111111/111}
 Group   3 Type F   : 16s13p12d7f3g contracted to 16s13p12d7f3g pattern {1111111111111111/1111111111111/111111111111/1111111/111}

Atom   0Co   basis set group =>   1
Atom   1C    basis set group =>   2
Atom   2F    basis set group =>   3
Atom   3F    basis set group =>   3
Atom   4C    basis set group =>   2
Atom   5F    basis set group =>   3
Atom   6F    basis set group =>   3


           ************************************************************
           *        Program running with 10 parallel MPI-processes    *
           *              working on a common directory               *
           ************************************************************
------------------------------------------------------------------------------
                           ORCA GTO INTEGRAL CALCULATION
                           -- RI-GTO INTEGRALS CHOSEN --
------------------------------------------------------------------------------
------------------------------------------------------------------------------
                   ___                                                        
                  /   \      - P O W E R E D   B Y -                         
                 /     \                                                     
                 |  |  |   _    _      __       _____    __    __             
                 |  |  |  | |  | |    /  \     |  _  \  |  |  /  |          
                  \  \/   | |  | |   /    \    | | | |  |  | /  /          
                 / \  \   | |__| |  /  /\  \   | |_| |  |  |/  /          
                |  |  |   |  __  | /  /__\  \  |    /   |      \           
                |  |  |   | |  | | |   __   |  |    \   |  |\   \          
                \     /   | |  | | |  |  |  |  | |\  \  |  | \   \       
                 \___/    |_|  |_| |__|  |__|  |_| \__\ |__|  \__/        
                                                                              
                      - O R C A' S   B I G   F R I E N D -                    
                                      &                                       
                       - I N T E G R A L  F E E D E R -                       
                                                                              
 v1 FN, 2020, v2 2021                                                         
------------------------------------------------------------------------------


Reading SHARK input file rho.SHARKINP.tmp ... ok
----------------------
SHARK INTEGRAL PACKAGE
----------------------

Number of atoms                             ...      7
Number of basis functions                   ...    266
Number of shells                            ...     96
Maximum angular momentum                    ...      4
Integral batch strategy                     ... SHARK/LIBINT Hybrid
RI-J (if used) integral strategy            ... SPLIT-RIJ (Revised 2003 algorithm where possible)
Printlevel                                  ...      1
Contraction scheme used                     ... SEGMENTED contraction
Coulomb Range Separation                    ... NOT USED
Exchange Range Separation                   ... NOT USED
Finite Nucleus Model                        ... NOT USED
Auxiliary Coulomb fitting basis             ... AVAILABLE
   # of basis functions in Aux-J            ...   1675
   # of shells in Aux-J                     ...    405
   Maximum angular momentum in Aux-J        ...      6
Auxiliary J/K fitting basis                 ... AVAILABLE
   # of basis functions in Aux-JK           ...   1675
   # of shells in Aux-JK                    ...    405
   Maximum angular momentum in Aux-JK       ...      6
Auxiliary Correlation fitting basis         ... AVAILABLE
   # of basis functions in Aux-C            ...   1675
   # of shells in Aux-C                     ...    405
   Maximum angular momentum in Aux-C        ...      6
Auxiliary 'external' fitting basis          ... NOT available
Integral threshold                          ...     1.000000e-12
Primitive cut-off                           ...     1.000000e-14
Primitive pair pre-selection threshold      ...     1.000000e-14

Calculating pre-screening integrals         ... done (  0.0 sec) Dimension = 96
Organizing shell pair data                  ... done (  0.0 sec)
Shell pair information
Total number of shell pairs                 ...      4656
Shell pairs after pre-screening             ...      3575
Total number of primitive shell pairs       ...     12895
Primitive shell pairs kept                  ...      7610
          la=0 lb=0:    724 shell pairs
          la=1 lb=0:    922 shell pairs
          la=1 lb=1:    293 shell pairs
          la=2 lb=0:    558 shell pairs
          la=2 lb=1:    348 shell pairs
          la=2 lb=2:    108 shell pairs
          la=3 lb=0:    254 shell pairs
          la=3 lb=1:    160 shell pairs
          la=3 lb=2:    100 shell pairs
          la=3 lb=3:     28 shell pairs
          la=4 lb=0:     34 shell pairs
          la=4 lb=1:     25 shell pairs
          la=4 lb=2:     12 shell pairs
          la=4 lb=3:      8 shell pairs
          la=4 lb=4:      1 shell pairs

Calculating one electron integrals          ... done (  0.0 sec)
Calculating RI/J V-Matrix + Cholesky decomp.... done (  0.2 sec)
Calculating RI/JK V-Matrix + Cholesky decomp... done (  0.1 sec)
Calculating RI/C V-Matrix + Cholesky decomp.... done (  0.1 sec)
Calculating Nuclear repulsion               ... done (  0.0 sec) ENN=    443.549065290004 Eh

SHARK setup successfully completed in   1.1 seconds

Maximum memory used throughout the entire GTOINT-calculation: 37.9 MB


           ************************************************************
           *        Program running with 10 parallel MPI-processes    *
           *              working on a common directory               *
           ************************************************************
------------------------------------------------------------------------------
                          ORCA RELATIVISTIC HAMILTONIAN
------------------------------------------------------------------------------

Relativistic Method            ... DKH
Order of DKH treatment         ...   2
Treatment of potential         ... V(e,N)
Eps parameter for DKH          ...   0.00000000010000
Nucleus model                  ... Point Nucleus
Speed of light used            ... 137.03598950000000


            ************************************************
            *        DOUGLAS-KROLL-HESS HAMILTONIAN        *
            *   Programmed by FN according to literature   *
            *        procedures. Special thanks to         *
            *       B.A. Hess, M. Reiher and A. Wolf       *
            *     University Erlangen-Nuernberg/Bonn       *
            ************************************************

Uncontracting the basis (first version)        ... done
Number of contracted basis functions           ...  266
Number of uncontracted basis functions         ...  387
Initializing the DKH file                      ... done
Calculating the relativistic integrals         ... done
Storing DKH matrices                           ... done
Code used for DKH trafo                        ... ORCA
Computing the DKH transformation               ... done
Storing the transformation variables           ... done
Transforming V and pVp to p**2 space           ... done
First transformation of V and pVp              ... done
Second transformation of Veff                  ... done
Adding kinetic energy                          ... done
Back transformation of Veff to r-space         ... done
Recovering DKH matrices                        ... done
Recontracting the H-matrix (first version)     ... done
Computing the DKH correction to the H-matrix   ... done
Reading the original H-matrix                  ... done
Adding DKH correction to the H-matrix          ... done
Storing the new modified H-matrix              ... done

Maximum memory used throughout the entire REL-calculation: 70.3 MB


           ************************************************************
           *        Program running with 10 parallel MPI-processes    *
           *              working on a common directory               *
           ************************************************************
-------------------------------------------------------------------------------
                                 ORCA SCF
-------------------------------------------------------------------------------

------------
SCF SETTINGS
------------
Hamiltonian:
 Ab initio Hamiltonian  Method          .... Hartree-Fock(GTOs)
 RI-approximation to the Coulomb term is turned on
   Number of AuxJ basis functions       .... 1675
   RIJ-COSX (HFX calculated with COS-X)).... on

Relativistic Settings:
 Scalar relativistic method             .... Douglas-Kroll-Hess
 Order of DKH procedure    Order        ....    2
 Mode of DKH-treatment                  .... V=V(e,N)
 Speed of light used       Velit        ....       137.035989
 Cutoff-constant           Eps          ....            1e-10 


General Settings:
 Integral files         IntName         .... rho
 Hartree-Fock type      HFTyp           .... CASSCF
 Total Charge           Charge          ....    2
 Multiplicity           Mult            ....    4
 Number of Electrons    NEL             ....   73
 Basis Dimension        Dim             ....  266
 Nuclear Repulsion      ENuc            ....    443.5490652900 Eh


Diagonalization of the overlap matrix:
Smallest eigenvalue                        ... 5.950e-04
Time for diagonalization                   ...    0.009 sec
Threshold for overlap eigenvalues          ... 1.000e-08
Number of eigenvalues below threshold      ... 0
Time for construction of square roots      ...    0.005 sec
Total time needed                          ...    0.014 sec

---------------------
INITIAL GUESS: MOREAD
---------------------
Guess MOs are being read from file: orb.gbw
Input Geometry matches current geometry (good)
Input basis set matches current basis set (good)
MOs were renormalized
Gram-Schmidt orthogonalization of all MOs with pivot on actives
                      ------------------
                      INITIAL GUESS DONE (   0.1 sec)
                      ------------------
--------------------
COSX GRID GENERATION
--------------------

GRIDX 1
-------
General Integration Accuracy     IntAcc      ... 3.816
Radial Grid Type                 RadialGrid  ... OptM3 with GC (2021)
Angular Grid (max. ang.)         AngularGrid ... 1 (Lebedev-50)
Angular grid pruning method      GridPruning ... 4 (adaptive)
Weight generation scheme         WeightScheme... Becke
Basis function cutoff            BFCut       ... 1.0000e-12
Integration weight cutoff        WCut        ... 1.0000e-14
Angular grids for H and He will be reduced by one unit
Partially contracted basis set               ... on
Rotationally invariant grid construction     ... off

Total number of grid points                  ...     5844
Total number of batches                      ...       95
Average number of points per batch           ...       61
Average number of grid points per atom       ...      835

GRIDX 2
-------
General Integration Accuracy     IntAcc      ... 4.020
Radial Grid Type                 RadialGrid  ... OptM3 with GC (2021)
Angular Grid (max. ang.)         AngularGrid ... 2 (Lebedev-110)
Angular grid pruning method      GridPruning ... 4 (adaptive)
Weight generation scheme         WeightScheme... Becke
Basis function cutoff            BFCut       ... 1.0000e-12
Integration weight cutoff        WCut        ... 1.0000e-14
Angular grids for H and He will be reduced by one unit
Partially contracted basis set               ... on
Rotationally invariant grid construction     ... off

Total number of grid points                  ...    13888
Total number of batches                      ...      221
Average number of points per batch           ...       62
Average number of grid points per atom       ...     1984

GRIDX 3
-------
General Integration Accuracy     IntAcc      ... 4.338
Radial Grid Type                 RadialGrid  ... OptM3 with GC (2021)
Angular Grid (max. ang.)         AngularGrid ... 3 (Lebedev-194)
Angular grid pruning method      GridPruning ... 4 (adaptive)
Weight generation scheme         WeightScheme... Becke
Basis function cutoff            BFCut       ... 1.0000e-12
Integration weight cutoff        WCut        ... 1.0000e-14
Angular grids for H and He will be reduced by one unit
Partially contracted basis set               ... on
Rotationally invariant grid construction     ... off

Total number of grid points                  ...    31118
Total number of batches                      ...      490
Average number of points per batch           ...       63
Average number of grid points per atom       ...     4445

Time for X-Grid setup             =    0.259 sec



 ... the calculation is a CASSCF calculation -I'm leaving here GOOD LUCK!!!



           ************************************************************
           *        Program running with 10 parallel MPI-processes    *
           *              working on a common directory               *
           ************************************************************
-------------------------------------------------------------------------------
                              ORCA-CASSCF
-------------------------------------------------------------------------------

Setting up the integral package       ... done
Setting up the integral package (RI)  ... done
Building the CAS space                ... done (10 configurations for Mult=4)
Building the CAS space                ... done (30 configurations for Mult=2)

SYSTEM-SPECIFIC SETTINGS:
Number of active electrons          ...    7
Number of active orbitals           ...    5
Total number of electrons           ...   73
Total number of orbitals            ...  266
Total number aux. functions         ... 1675

Determined orbital ranges:
   Internal       0 -   32 (  33 orbitals)
   Active        33 -   37 (   5 orbitals)
   External      38 -  265 ( 228 orbitals)
Number of rotation parameters      ...   8829

CI-STEP:
CI strategy                         ... General CI
Number of multiplicity blocks       ...    2
BLOCK  1 WEIGHT=   0.5000
  Multiplicity                      ...    4
  #(Configurations)                 ...   10
  #(CSFs)                           ...   10
  #(Roots)                          ...   10
    ROOT=0 WEIGHT=    0.050000
    ROOT=1 WEIGHT=    0.050000
    ROOT=2 WEIGHT=    0.050000
    ROOT=3 WEIGHT=    0.050000
    ROOT=4 WEIGHT=    0.050000
    ROOT=5 WEIGHT=    0.050000
    ROOT=6 WEIGHT=    0.050000
    ROOT=7 WEIGHT=    0.050000
    ROOT=8 WEIGHT=    0.050000
    ROOT=9 WEIGHT=    0.050000

BLOCK  2 WEIGHT=   0.5000
  Multiplicity                      ...    2
  #(Configurations)                 ...   30
  #(CSFs)                           ...   40
  #(Roots)                          ...   40
    ROOT=0 WEIGHT=    0.012500
    ROOT=1 WEIGHT=    0.012500
    ROOT=2 WEIGHT=    0.012500
    ROOT=3 WEIGHT=    0.012500
    ROOT=4 WEIGHT=    0.012500
    ROOT=5 WEIGHT=    0.012500
    ROOT=6 WEIGHT=    0.012500
    ROOT=7 WEIGHT=    0.012500
    ROOT=8 WEIGHT=    0.012500
    ROOT=9 WEIGHT=    0.012500
    ROOT=10 WEIGHT=    0.012500
    ROOT=11 WEIGHT=    0.012500
    ROOT=12 WEIGHT=    0.012500
    ROOT=13 WEIGHT=    0.012500
    ROOT=14 WEIGHT=    0.012500
    ROOT=15 WEIGHT=    0.012500
    ROOT=16 WEIGHT=    0.012500
    ROOT=17 WEIGHT=    0.012500
    ROOT=18 WEIGHT=    0.012500
    ROOT=19 WEIGHT=    0.012500
    ROOT=20 WEIGHT=    0.012500
    ROOT=21 WEIGHT=    0.012500
    ROOT=22 WEIGHT=    0.012500
    ROOT=23 WEIGHT=    0.012500
    ROOT=24 WEIGHT=    0.012500
    ROOT=25 WEIGHT=    0.012500
    ROOT=26 WEIGHT=    0.012500
    ROOT=27 WEIGHT=    0.012500
    ROOT=28 WEIGHT=    0.012500
    ROOT=29 WEIGHT=    0.012500
    ROOT=30 WEIGHT=    0.012500
    ROOT=31 WEIGHT=    0.012500
    ROOT=32 WEIGHT=    0.012500
    ROOT=33 WEIGHT=    0.012500
    ROOT=34 WEIGHT=    0.012500
    ROOT=35 WEIGHT=    0.012500
    ROOT=36 WEIGHT=    0.012500
    ROOT=37 WEIGHT=    0.012500
    ROOT=38 WEIGHT=    0.012500
    ROOT=39 WEIGHT=    0.012500

  PrintLevel                        ...    1
  N(GuessMat)                       ...       512
  MaxDim(CI)                        ...        10
  MaxIter(CI)                       ...        64
  Energy Tolerance CI               ...  1.00e-09
  Residual Tolerance CI             ...  1.00e-09
  Shift(CI)                         ...  1.00e-04

INTEGRAL-TRANSFORMATION-STEP:
  Algorithm                         ... RI-MO

ORBITAL-IMPROVEMENT-STEP:
  Algorithm                         ... SuperCI
  Default Parametrization           ... CAYLEY
  Act-Act rotations                 ... depends on algorithm used
  FreezeIE                          ... 95.00% of ||g||
  Until reaching FreezeIE rotations with active orbitals are damped. 

  Approx. Fock at                   ... 0.000000e+00 density convergence
  Level shift                       ... energy gap dependent. Minimum=1.000
  Switch step at gradient           ...  3.00e-02 
  Switch step at iteration          ...        50   
  Switch step to                    ... DIIS    

SCF-SETTINGS:
  Incremental                       ... off
  RIJCOSX approximation             ... on
  UseFinalGrid                      ... on
  RI-JK approximation               ... off
  AO integral handling              ... DIRECT
  Integral Neglect Thresh           ...  1.00e-12
  Primitive cutoff TCut             ...  1.00e-14
  Energy convergence tolerance      ...  1.00e-08
  Orbital gradient convergence      ...  1.00e-05
  Max. number of iterations         ...       100  


PROPERTIES-SETTINGS:
  Spin orbit coupling               ... true
  GTensor                           ... true

FINAL ORBITALS:
  Active   Orbitals                 ... d-orbitals 
  Internal Orbitals                 ... canonical 
  External Orbitals                 ... canonical 

------------------
CAS-SCF ITERATIONS
------------------


MACRO-ITERATION   1: 
   --- Canonicalize Internal Space
   --- Canonicalize External Space
   --- Inactive Energy E0 = -1838.60083189 Eh
CI-ITERATION   0: 
 -1865.113450040   0.000000000000 (    0.00)
 -1865.113449397   0.000000000000
 -1865.110577257   0.000000000000
 -1865.103540936   0.000000000000
 -1865.103217393   0.000000000000
 -1865.089001192   0.000000000000
 -1865.088998530   0.000000000000
 -1865.032233821   0.000000000000
 -1865.014196739   0.000000000000
 -1865.012586094   0.000000000000
   CI-PROBLEM SOLVED
   DENSITIES MADE
CI-ITERATION   0: 
 -1865.039798797   0.000000000000 (    0.00)
 -1865.039795971   0.000000000000
 -1865.026714877   0.000000000000
 -1865.026551165   0.000000000000
 -1865.026411201   0.000000000000
 -1865.026141095   0.000000000000
 -1865.021690837   0.000000000000
 -1865.016536058   0.000000000000
 -1865.016536058   0.000000000000
 -1865.009796176   0.000000000000
 -1865.009380338   0.000000000000
 -1865.005793314   0.000000000000
 -1864.995837129   0.000000000000
 -1864.995837009   0.000000000000
 -1864.992111763   0.000000000000
 -1864.992104358   0.000000000000
 -1864.987105030   0.000000000000
 -1864.987105007   0.000000000000
 -1864.985343870   0.000000000000
 -1864.985173286   0.000000000000
 -1864.983272115   0.000000000000
 -1864.982693293   0.000000000000
 -1864.982400571   0.000000000000
 -1864.977724815   0.000000000000
 -1864.977681286   0.000000000000
 -1864.976458977   0.000000000000
 -1864.974843700   0.000000000000
 -1864.974843699   0.000000000000
 -1864.916324829   0.000000000000
 -1864.913714294   0.000000000000
 -1864.913486216   0.000000000000
 -1864.906153770   0.000000000000
 -1864.906144894   0.000000000000
 -1864.905427865   0.000000000000
 -1864.905427603   0.000000000000
 -1864.808949492   0.000000000000
 -1864.804980211   0.000000000000
 -1864.803746445   0.000000000000
 -1864.786403881   0.000000000000
 -1864.786392073   0.000000000000
   CI-PROBLEM SOLVED
   DENSITIES MADE

                 <<<<<<<<<<<<<<<<<<INITIAL CI STATE CHECK>>>>>>>>>>>>>>>>>>

BLOCK  1 MULT= 4 NROOTS=10 
ROOT   0:  E=   -1865.1134500397 Eh
      0.35077 [     8]: 21211
      0.24124 [     0]: 11122
      0.19344 [     3]: 12112
      0.12242 [     5]: 12211
      0.03666 [     6]: 21112
      0.03099 [     9]: 22111
      0.02424 [     7]: 21121
ROOT   1:  E=   -1865.1134493972 Eh  0.000 eV      0.1 cm**-1
      0.36284 [     6]: 21112
      0.21211 [     2]: 11221
      0.17025 [     5]: 12211
      0.08538 [     4]: 12121
      0.07323 [     3]: 12112
      0.05033 [     8]: 21211
      0.03054 [     1]: 11212
      0.01071 [     9]: 22111
      0.00461 [     7]: 21121
ROOT   2:  E=   -1865.1105772570 Eh  0.078 eV    630.5 cm**-1
      0.31317 [     3]: 12112
      0.31099 [     1]: 11212
      0.21955 [     8]: 21211
      0.07090 [     7]: 21121
      0.04660 [     0]: 11122
      0.01677 [     4]: 12121
      0.01592 [     2]: 11221
      0.00426 [     5]: 12211
ROOT   3:  E=   -1865.1035409358 Eh  0.270 eV   2174.8 cm**-1
      0.46635 [     0]: 11122
      0.11507 [     8]: 21211
      0.10036 [     7]: 21121
      0.08330 [     2]: 11221
      0.07431 [     5]: 12211
      0.04689 [     3]: 12112
      0.04344 [     6]: 21112
      0.03752 [     9]: 22111
      0.02277 [     1]: 11212
      0.00998 [     4]: 12121
ROOT   4:  E=   -1865.1032173934 Eh  0.278 eV   2245.8 cm**-1
      0.25639 [     5]: 12211
      0.22552 [     9]: 22111
      0.20643 [     1]: 11212
      0.14487 [     6]: 21112
      0.08004 [     8]: 21211
      0.06911 [     3]: 12112
      0.00989 [     2]: 11221
      0.00578 [     7]: 21121
ROOT   5:  E=   -1865.0890011915 Eh  0.665 eV   5365.9 cm**-1
      0.47894 [     4]: 12121
      0.25269 [     2]: 11221
      0.13338 [     9]: 22111
      0.07497 [     8]: 21211
      0.02977 [     3]: 12112
      0.01253 [     5]: 12211
      0.01057 [     1]: 11212
      0.00499 [     0]: 11122
ROOT   6:  E=   -1865.0889985305 Eh  0.665 eV   5366.5 cm**-1
      0.47583 [     7]: 21121
      0.20634 [     9]: 22111
      0.09694 [     4]: 12121
      0.07221 [     0]: 11122
      0.06893 [     8]: 21211
      0.04227 [     3]: 12112
      0.02384 [     2]: 11221
      0.01114 [     1]: 11212
ROOT   7:  E=   -1865.0322338210 Eh  2.210 eV  17824.9 cm**-1
      0.28337 [     7]: 21121
      0.25657 [     1]: 11212
      0.25410 [     9]: 22111
      0.05550 [     4]: 12121
      0.05095 [     2]: 11221
      0.04708 [     0]: 11122
      0.03348 [     8]: 21211
      0.00785 [     3]: 12112
      0.00760 [     6]: 21112
      0.00351 [     5]: 12211
ROOT   8:  E=   -1865.0141967391 Eh  2.701 eV  21783.6 cm**-1
      0.34966 [     2]: 11221
      0.25378 [     4]: 12121
      0.18073 [     5]: 12211
      0.11468 [     6]: 21112
      0.05371 [     0]: 11122
      0.02558 [     7]: 21121
      0.00871 [     1]: 11212
      0.00727 [     9]: 22111
      0.00420 [     8]: 21211
ROOT   9:  E=   -1865.0125860935 Eh  2.745 eV  22137.1 cm**-1
      0.28415 [     6]: 21112
      0.22259 [     3]: 12112
      0.17538 [     5]: 12211
      0.14227 [     1]: 11212
      0.09402 [     9]: 22111
      0.06649 [     0]: 11122
      0.00893 [     7]: 21121
      0.00265 [     8]: 21211

BLOCK  2 MULT= 2 NROOTS=40 
ROOT   0:  E=   -1865.0397987969 Eh
      0.27238 [     6]: 11212
      0.11730 [    11]: 12202
      0.10266 [    20]: 21202
      0.09891 [     9]: 12112
      0.07264 [    18]: 21112
      0.05812 [    21]: 21211
      0.04298 [    15]: 20212
      0.03417 [    25]: 22102
      0.02523 [     2]: 02212
      0.02264 [     1]: 02122
      0.02139 [     4]: 10222
      0.01873 [     0]: 01222
      0.01584 [     7]: 11221
      0.01295 [    22]: 21220
      0.01230 [     5]: 11122
      0.01111 [    13]: 12220
      0.01101 [    28]: 22201
      0.01078 [    26]: 22111
      0.01064 [    19]: 21121
      0.00899 [    24]: 22021
      0.00589 [     8]: 12022
      0.00587 [    12]: 12211
ROOT   1:  E=   -1865.0397959706 Eh  0.000 eV      0.6 cm**-1
      0.16237 [     6]: 11212
      0.12774 [     9]: 12112
      0.11727 [    18]: 21112
      0.09471 [    15]: 20212
      0.08944 [    20]: 21202
      0.07877 [    21]: 21211
      0.06884 [     5]: 11122
      0.05623 [     4]: 10222
      0.04682 [    25]: 22102
      0.02505 [    10]: 12121
      0.02228 [     0]: 01222
      0.02147 [     2]: 02212
      0.02067 [    19]: 21121
      0.01373 [    17]: 21022
      0.01152 [    23]: 22012
      0.00835 [    22]: 21220
      0.00760 [    16]: 20221
      0.00725 [    12]: 12211
      0.00716 [    29]: 22210
      0.00641 [    13]: 12220
ROOT   2:  E=   -1865.0267148774 Eh  0.356 eV   2871.6 cm**-1
      0.24745 [    21]: 21211
      0.10544 [    12]: 12211
      0.10133 [    28]: 22201
      0.08643 [    26]: 22111
      0.04843 [    19]: 21121
      0.03902 [     0]: 01222
      0.03873 [     2]: 02212
      0.03519 [    23]: 22012
      0.03303 [     6]: 11212
      0.03230 [     5]: 11122
      0.03050 [     3]: 02221
      0.02729 [    10]: 12121
      0.02206 [     4]: 10222
      0.02000 [    29]: 22210
      0.01830 [    15]: 20212
      0.01803 [     8]: 12022
      0.01725 [    18]: 21112
      0.01641 [    11]: 12202
      0.01144 [    25]: 22102
      0.01050 [    17]: 21022
      0.00839 [     1]: 02122
      0.00836 [    22]: 21220
      0.00635 [    14]: 20122
      0.00556 [     9]: 12112
      0.00488 [    13]: 12220
      0.00349 [    27]: 22120
      0.00274 [    24]: 22021
ROOT   3:  E=   -1865.0265511647 Eh  0.360 eV   2907.5 cm**-1
      0.22549 [    12]: 12211
      0.13715 [     7]: 11221
      0.11749 [    26]: 22111
      0.07162 [     5]: 11122
      0.06069 [     6]: 11212
      0.05625 [    21]: 21211
      0.04944 [    25]: 22102
      0.04209 [    14]: 20122
      0.03300 [    10]: 12121
      0.02688 [     9]: 12112
      0.02506 [    18]: 21112
      0.02489 [    20]: 21202
      0.02349 [    15]: 20212
      0.02290 [     3]: 02221
      0.01870 [    23]: 22012
      0.01448 [    16]: 20221
      0.01345 [    17]: 21022
      0.01241 [    19]: 21121
      0.00840 [    27]: 22120
      0.00494 [     1]: 02122
ROOT   4:  E=   -1865.0264112013 Eh  0.364 eV   2938.2 cm**-1
      0.16507 [    16]: 20221
      0.11970 [     8]: 12022
      0.11118 [    28]: 22201
      0.10463 [     9]: 12112
      0.10193 [     1]: 02122
      0.06964 [     5]: 11122
      0.06419 [    14]: 20122
      0.04978 [     4]: 10222
      0.03778 [     7]: 11221
      0.03689 [    21]: 21211
      0.02324 [    23]: 22012
      0.01637 [    17]: 21022
      0.01503 [    18]: 21112
      0.01362 [    12]: 12211
      0.01176 [     2]: 02212
      0.01118 [    15]: 20212
      0.00957 [    11]: 12202
      0.00808 [    22]: 21220
      0.00700 [     0]: 01222
      0.00596 [     6]: 11212
      0.00406 [    10]: 12121
      0.00398 [    19]: 21121
      0.00388 [    25]: 22102
      0.00355 [    29]: 22210
ROOT   5:  E=   -1865.0261410945 Eh  0.372 eV   2997.5 cm**-1
      0.21846 [    18]: 21112
      0.15472 [     9]: 12112
      0.07168 [    21]: 21211
      0.06810 [     6]: 11212
      0.06670 [     5]: 11122
      0.05313 [     4]: 10222
      0.05113 [     7]: 11221
      0.04276 [    14]: 20122
      0.03654 [    15]: 20212
      0.03412 [    26]: 22111
      0.02600 [    29]: 22210
      0.02268 [    19]: 21121
      0.02215 [     8]: 12022
      0.02189 [    12]: 12211
      0.01974 [    25]: 22102
      0.01937 [    27]: 22120
      0.01585 [    23]: 22012
      0.01123 [    24]: 22021
      0.01066 [     0]: 01222
      0.00945 [     1]: 02122
      0.00708 [     2]: 02212
      0.00427 [    11]: 12202
      0.00422 [    17]: 21022
      0.00370 [    22]: 21220
ROOT   6:  E=   -1865.0216908368 Eh  0.493 eV   3974.2 cm**-1
      0.12788 [    12]: 12211
      0.12769 [     5]: 11122
      0.08355 [    18]: 21112
      0.08039 [    29]: 22210
      0.06761 [    20]: 21202
      0.05826 [     7]: 11221
      0.05500 [    10]: 12121
      0.04294 [    14]: 20122
      0.03998 [    19]: 21121
      0.03817 [     2]: 02212
      0.03781 [    17]: 21022
      0.03659 [    26]: 22111
      0.03455 [     0]: 01222
      0.03373 [    25]: 22102
      0.02849 [    11]: 12202
      0.02682 [    22]: 21220
      0.01793 [    15]: 20212
      0.01610 [    24]: 22021
      0.01186 [     8]: 12022
      0.00888 [     1]: 02122
      0.00707 [    16]: 20221
      0.00552 [     9]: 12112
      0.00319 [     4]: 10222
      0.00307 [    28]: 22201
      0.00270 [    13]: 12220
ROOT   7:  E=   -1865.0165360579 Eh  0.633 eV   5105.6 cm**-1
      0.13200 [     2]: 02212
      0.11795 [     6]: 11212
      0.07685 [     9]: 12112
      0.07588 [    21]: 21211
      0.07449 [     5]: 11122
      0.06865 [    19]: 21121
      0.06654 [    15]: 20212
      0.05342 [    23]: 22012
      0.04955 [    18]: 21112
      0.04220 [    13]: 12220
      0.03384 [    11]: 12202
      0.03190 [     0]: 01222
      0.02931 [    20]: 21202
      0.01881 [    12]: 12211
      0.01878 [    26]: 22111
      0.01813 [    25]: 22102
      0.01582 [    29]: 22210
      0.01352 [    28]: 22201
      0.01157 [     7]: 11221
      0.01140 [     3]: 02221
      0.00955 [     8]: 12022
      0.00623 [     4]: 10222
      0.00460 [    27]: 22120
      0.00451 [    10]: 12121
      0.00379 [     1]: 02122
      0.00377 [    24]: 22021
      0.00259 [    16]: 20221
ROOT   8:  E=   -1865.0165360578 Eh  0.633 eV   5105.6 cm**-1
      0.17284 [     6]: 11212
      0.09337 [    20]: 21202
      0.07048 [    11]: 12202
      0.06634 [     1]: 02122
      0.06047 [     9]: 12112
      0.06046 [     7]: 11221
      0.05376 [    26]: 22111
      0.05216 [    22]: 21220
      0.04792 [     0]: 01222
      0.04516 [    25]: 22102
      0.04243 [    10]: 12121
      0.03746 [    18]: 21112
      0.03106 [     5]: 11122
      0.02879 [    12]: 12211
      0.02420 [     4]: 10222
      0.01963 [    17]: 21022
      0.01647 [     8]: 12022
      0.01222 [    14]: 20122
      0.01167 [    29]: 22210
      0.00938 [    21]: 21211
      0.00821 [    19]: 21121
      0.00653 [    24]: 22021
      0.00545 [    23]: 22012
      0.00532 [     2]: 02212
      0.00522 [    28]: 22201
      0.00442 [    27]: 22120
      0.00374 [     3]: 02221
      0.00281 [    16]: 20221
ROOT   9:  E=   -1865.0097961763 Eh  0.816 eV   6584.8 cm**-1
      0.16449 [     5]: 11122
      0.10866 [     9]: 12112
      0.09291 [    14]: 20122
      0.08623 [    19]: 21121
      0.08013 [    21]: 21211
      0.06740 [     4]: 10222
      0.04374 [    12]: 12211
      0.04359 [    29]: 22210
      0.03950 [    15]: 20212
      0.03546 [    17]: 21022
      0.03408 [    16]: 20221
      0.02268 [     3]: 02221
      0.02031 [     2]: 02212
      0.01876 [     1]: 02122
      0.01656 [    10]: 12121
      0.01499 [    26]: 22111
      0.01483 [    24]: 22021
      0.01377 [     7]: 11221
      0.01159 [     6]: 11212
      0.01089 [    23]: 22012
      0.01035 [    25]: 22102
      0.00900 [     0]: 01222
      0.00819 [    18]: 21112
      0.00747 [    20]: 21202
      0.00744 [     8]: 12022
      0.00660 [    27]: 22120
      0.00567 [    13]: 12220
      0.00385 [    28]: 22201
ROOT  10:  E=   -1865.0093803376 Eh  0.828 eV   6676.1 cm**-1
      0.23979 [    21]: 21211
      0.20897 [    28]: 22201
      0.10927 [     9]: 12112
      0.07782 [     5]: 11122
      0.04564 [    11]: 12202
      0.03947 [     0]: 01222
      0.03378 [    25]: 22102
      0.03214 [     8]: 12022
      0.03046 [    17]: 21022
      0.03007 [    14]: 20122
      0.02729 [    19]: 21121
      0.02349 [    12]: 12211
      0.01895 [     4]: 10222
      0.01817 [    10]: 12121
      0.01292 [    26]: 22111
      0.01207 [     3]: 02221
      0.00940 [     6]: 11212
      0.00776 [    20]: 21202
      0.00498 [    22]: 21220
      0.00365 [     1]: 02122
      0.00288 [    13]: 12220
      0.00263 [    23]: 22012
ROOT  11:  E=   -1865.0057933144 Eh  0.925 eV   7463.3 cm**-1
      0.15511 [    16]: 20221
      0.10810 [    26]: 22111
      0.09246 [     5]: 11122
      0.07335 [    11]: 12202
      0.07151 [    21]: 21211
      0.06677 [    19]: 21121
      0.05394 [     1]: 02122
      0.05139 [     9]: 12112
      0.04418 [     7]: 11221
      0.04270 [     8]: 12022
      0.03601 [    28]: 22201
      0.03382 [    24]: 22021
      0.02322 [     2]: 02212
      0.02190 [    18]: 21112
      0.02137 [     6]: 11212
      0.01963 [    10]: 12121
      0.01643 [    20]: 21202
      0.01526 [    12]: 12211
      0.01508 [    25]: 22102
      0.01395 [    15]: 20212
      0.00715 [     4]: 10222
      0.00640 [    27]: 22120
      0.00286 [    23]: 22012
      0.00277 [    22]: 21220
ROOT  12:  E=   -1864.9958371289 Eh  1.196 eV   9648.5 cm**-1
      0.14167 [    21]: 21211
      0.13734 [    26]: 22111
      0.10758 [     6]: 11212
      0.08532 [     9]: 12112
      0.07174 [     5]: 11122
      0.06487 [     0]: 01222
      0.06119 [    19]: 21121
      0.05637 [     4]: 10222
      0.04742 [    28]: 22201
      0.04437 [    10]: 12121
      0.02268 [    12]: 12211
      0.01975 [     8]: 12022
      0.01955 [    11]: 12202
      0.01811 [    17]: 21022
      0.01180 [    18]: 21112
      0.01146 [     3]: 02221
      0.01140 [    27]: 22120
      0.01134 [    24]: 22021
      0.00981 [    14]: 20122
      0.00930 [    25]: 22102
      0.00773 [     2]: 02212
      0.00750 [     1]: 02122
      0.00689 [    22]: 21220
      0.00680 [     7]: 11221
      0.00329 [    23]: 22012
ROOT  13:  E=   -1864.9958370091 Eh  1.196 eV   9648.5 cm**-1
      0.14359 [    18]: 21112
      0.10722 [    12]: 12211
      0.09171 [     7]: 11221
      0.07906 [    23]: 22012
      0.07835 [    15]: 20212
      0.07013 [    29]: 22210
      0.06951 [     2]: 02212
      0.06267 [     6]: 11212
      0.03957 [    22]: 21220
      0.03634 [     8]: 12022
      0.03266 [    26]: 22111
      0.02560 [     1]: 02122
      0.02466 [     4]: 10222
      0.01716 [     5]: 11122
      0.01639 [     0]: 01222
      0.01583 [     9]: 12112
      0.01489 [    19]: 21121
      0.01474 [    10]: 12121
      0.01435 [    21]: 21211
      0.01300 [    24]: 22021
      0.01300 [    17]: 21022
      0.00779 [     3]: 02221
      0.00438 [    27]: 22120
ROOT  14:  E=   -1864.9921117627 Eh  1.298 eV  10466.1 cm**-1
      0.11044 [     1]: 02122
      0.08903 [    12]: 12211
      0.08734 [     7]: 11221
      0.07970 [    10]: 12121
      0.07756 [    24]: 22021
      0.06958 [    22]: 21220
      0.06862 [    17]: 21022
      0.06410 [    29]: 22210
      0.06126 [    26]: 22111
      0.05379 [    27]: 22120
      0.05350 [    16]: 20221
      0.04752 [     5]: 11122
      0.02529 [    14]: 20122
      0.02306 [    15]: 20212
      0.01865 [     4]: 10222
      0.00963 [    20]: 21202
      0.00845 [    18]: 21112
      0.00799 [    21]: 21211
      0.00755 [     0]: 01222
      0.00705 [    19]: 21121
      0.00571 [     9]: 12112
      0.00565 [     2]: 02212
      0.00470 [    25]: 22102
      0.00366 [    11]: 12202
      0.00307 [     8]: 12022
      0.00298 [     3]: 02221
ROOT  15:  E=   -1864.9921043585 Eh  1.298 eV  10467.7 cm**-1
      0.15649 [    26]: 22111
      0.15122 [    19]: 21121
      0.11349 [     5]: 11122
      0.11071 [    21]: 21211
      0.08635 [     7]: 11221
      0.05832 [     9]: 12112
      0.04595 [    24]: 22021
      0.04015 [    27]: 22120
      0.02897 [    11]: 12202
      0.02689 [    28]: 22201
      0.02433 [     6]: 11212
      0.02225 [    29]: 22210
      0.01995 [    22]: 21220
      0.01626 [    23]: 22012
      0.01579 [    18]: 21112
      0.01325 [     1]: 02122
      0.01233 [    12]: 12211
      0.01127 [    16]: 20221
      0.01118 [    13]: 12220
      0.01043 [    17]: 21022
      0.00774 [    20]: 21202
      0.00446 [    25]: 22102
      0.00411 [    10]: 12121
ROOT  16:  E=   -1864.9871050296 Eh  1.434 eV  11564.9 cm**-1
      0.26732 [    10]: 12121
      0.08071 [    29]: 22210
      0.08059 [     7]: 11221
      0.07475 [     9]: 12112
      0.06966 [    22]: 21220
      0.06937 [    17]: 21022
      0.03867 [    23]: 22012
      0.03802 [    20]: 21202
      0.03547 [     0]: 01222
      0.03113 [     6]: 11212
      0.02999 [    21]: 21211
      0.02936 [    14]: 20122
      0.02787 [    18]: 21112
      0.02496 [    11]: 12202
      0.01893 [    15]: 20212
      0.01328 [    19]: 21121
      0.01254 [     5]: 11122
      0.01248 [     4]: 10222
      0.00888 [    25]: 22102
      0.00747 [    26]: 22111
      0.00620 [    16]: 20221
      0.00572 [    12]: 12211
      0.00402 [     2]: 02212
      0.00388 [    28]: 22201
      0.00384 [     1]: 02122
ROOT  17:  E=   -1864.9871050075 Eh  1.434 eV  11565.0 cm**-1
      0.14028 [    19]: 21121
      0.13453 [    13]: 12220
      0.12724 [    26]: 22111
      0.11312 [     8]: 12022
      0.06785 [     6]: 11212
      0.06263 [    18]: 21112
      0.05265 [     5]: 11122
      0.04637 [    12]: 12211
      0.04065 [    16]: 20221
      0.03803 [    21]: 21211
      0.02747 [     2]: 02212
      0.01995 [     3]: 02221
      0.01642 [     4]: 10222
      0.01235 [    15]: 20212
      0.01230 [    11]: 12202
      0.01155 [    20]: 21202
      0.01116 [     0]: 01222
      0.01093 [    25]: 22102
      0.01034 [     9]: 12112
      0.00879 [    10]: 12121
      0.00869 [     1]: 02122
      0.00772 [    14]: 20122
      0.00681 [    27]: 22120
      0.00596 [    29]: 22210
ROOT  18:  E=   -1864.9853438700 Eh  1.482 eV  11951.5 cm**-1
      0.25737 [    10]: 12121
      0.12590 [    22]: 21220
      0.12249 [    27]: 22120
      0.06295 [     7]: 11221
      0.05595 [    19]: 21121
      0.05363 [    15]: 20212
      0.04816 [     9]: 12112
      0.04696 [    23]: 22012
      0.04170 [    18]: 21112
      0.03142 [     0]: 01222
      0.02590 [    14]: 20122
      0.02227 [    21]: 21211
      0.01668 [     5]: 11122
      0.01350 [    24]: 22021
      0.01254 [    17]: 21022
      0.01176 [    12]: 12211
      0.01135 [     1]: 02122
      0.00982 [    25]: 22102
      0.00615 [    20]: 21202
      0.00585 [     3]: 02221
      0.00566 [     6]: 11212
      0.00353 [     2]: 02212
ROOT  19:  E=   -1864.9851732857 Eh  1.486 eV  11988.9 cm**-1
      0.21069 [    19]: 21121
      0.09700 [    24]: 22021
      0.08828 [    10]: 12121
      0.07850 [    26]: 22111
      0.07549 [    12]: 12211
      0.06765 [     5]: 11122
      0.06234 [    28]: 22201
      0.05956 [     3]: 02221
      0.04195 [    18]: 21112
      0.03475 [    21]: 21211
      0.03118 [     7]: 11221
      0.02521 [     4]: 10222
      0.02198 [    13]: 12220
      0.01688 [     6]: 11212
      0.01367 [    11]: 12202
      0.01307 [    25]: 22102
      0.01091 [    22]: 21220
      0.01048 [    16]: 20221
      0.00628 [    14]: 20122
      0.00523 [     8]: 12022
      0.00451 [    23]: 22012
      0.00416 [    17]: 21022
      0.00394 [     9]: 12112
      0.00394 [    27]: 22120
      0.00383 [    15]: 20212
      0.00290 [     1]: 02122
      0.00250 [     2]: 02212
ROOT  20:  E=   -1864.9832721145 Eh  1.538 eV  12406.2 cm**-1
      0.14176 [    26]: 22111
      0.13028 [    10]: 12121
      0.10894 [     7]: 11221
      0.09988 [    27]: 22120
      0.06414 [    13]: 12220
      0.05961 [    21]: 21211
      0.05744 [    22]: 21220
      0.04225 [     0]: 01222
      0.04176 [     6]: 11212
      0.03574 [    19]: 21121
      0.03377 [    17]: 21022
      0.03247 [    11]: 12202
      0.02663 [     8]: 12022
      0.02235 [    16]: 20221
      0.01638 [     4]: 10222
      0.01364 [     5]: 11122
      0.01053 [    14]: 20122
      0.01052 [     2]: 02212
      0.00830 [    23]: 22012
      0.00808 [    29]: 22210
      0.00795 [     3]: 02221
      0.00546 [     9]: 12112
      0.00530 [    25]: 22102
      0.00419 [    20]: 21202
      0.00404 [    18]: 21112
      0.00348 [    15]: 20212
ROOT  21:  E=   -1864.9826932928 Eh  1.554 eV  12533.2 cm**-1
      0.17720 [    29]: 22210
      0.12830 [    10]: 12121
      0.08084 [    19]: 21121
      0.07686 [     7]: 11221
      0.07476 [     5]: 11122
      0.07401 [    17]: 21022
      0.07294 [    14]: 20122
      0.04641 [    12]: 12211
      0.04170 [     8]: 12022
      0.03883 [    26]: 22111
      0.03838 [    27]: 22120
      0.01889 [     6]: 11212
      0.01888 [    24]: 22021
      0.01815 [    16]: 20221
      0.01808 [     0]: 01222
      0.01611 [     1]: 02122
      0.01001 [    23]: 22012
      0.00832 [    22]: 21220
      0.00676 [    20]: 21202
      0.00605 [    15]: 20212
      0.00528 [     3]: 02221
      0.00486 [     2]: 02212
      0.00434 [    21]: 21211
      0.00375 [    25]: 22102
      0.00330 [     4]: 10222
      0.00283 [    11]: 12202
ROOT  22:  E=   -1864.9824005709 Eh  1.562 eV  12597.5 cm**-1
      0.12389 [    26]: 22111
      0.10738 [     8]: 12022
      0.10364 [    16]: 20221
      0.09831 [    21]: 21211
      0.07604 [    19]: 21121
      0.06560 [     5]: 11122
      0.06396 [    23]: 22012
      0.04728 [    10]: 12121
      0.03332 [     2]: 02212
      0.03270 [    17]: 21022
      0.02592 [    29]: 22210
      0.02551 [     9]: 12112
      0.02291 [    22]: 21220
      0.02286 [    11]: 12202
      0.02253 [    15]: 20212
      0.02194 [    24]: 22021
      0.01798 [     6]: 11212
      0.01709 [     1]: 02122
      0.01399 [     0]: 01222
      0.01123 [    14]: 20122
      0.00871 [    25]: 22102
      0.00794 [    12]: 12211
      0.00652 [    28]: 22201
      0.00546 [    13]: 12220
      0.00449 [    27]: 22120
      0.00443 [    20]: 21202
      0.00433 [    18]: 21112
      0.00270 [     7]: 11221
ROOT  23:  E=   -1864.9777248147 Eh  1.689 eV  13623.7 cm**-1
      0.14706 [    19]: 21121
      0.11194 [     7]: 11221
      0.06905 [     8]: 12022
      0.06641 [    28]: 22201
      0.05872 [    21]: 21211
      0.04483 [    10]: 12121
      0.04298 [     9]: 12112
      0.03969 [     1]: 02122
      0.03735 [    23]: 22012
      0.03129 [     6]: 11212
      0.03117 [    24]: 22021
      0.03045 [     5]: 11122
      0.02990 [    27]: 22120
      0.02799 [    15]: 20212
      0.02700 [    14]: 20122
      0.02692 [    12]: 12211
      0.02401 [    26]: 22111
      0.02367 [     0]: 01222
      0.02251 [     4]: 10222
      0.01966 [    18]: 21112
      0.01881 [    17]: 21022
      0.01537 [    16]: 20221
      0.01400 [    29]: 22210
      0.01376 [     2]: 02212
      0.00791 [    22]: 21220
      0.00644 [    11]: 12202
      0.00630 [    25]: 22102
ROOT  24:  E=   -1864.9776812857 Eh  1.690 eV  13633.2 cm**-1
      0.16650 [    12]: 12211
      0.15071 [    18]: 21112
      0.14190 [    22]: 21220
      0.11805 [     1]: 02122
      0.05095 [     9]: 12112
      0.04153 [    27]: 22120
      0.03893 [    16]: 20221
      0.03627 [     8]: 12022
      0.03149 [    21]: 21211
      0.02945 [    10]: 12121
      0.02812 [    24]: 22021
      0.02257 [    20]: 21202
      0.02256 [     7]: 11221
      0.02105 [    25]: 22102
      0.01687 [    15]: 20212
      0.01548 [    17]: 21022
      0.01465 [    29]: 22210
      0.01253 [    14]: 20122
      0.00805 [    26]: 22111
      0.00794 [     6]: 11212
      0.00600 [    23]: 22012
      0.00498 [     5]: 11122
      0.00370 [     3]: 02221
      0.00284 [     0]: 01222
ROOT  25:  E=   -1864.9764589772 Eh  1.724 eV  13901.5 cm**-1
      0.11821 [    19]: 21121
      0.10466 [    18]: 21112
      0.07013 [    13]: 12220
      0.06843 [     2]: 02212
      0.06410 [    24]: 22021
      0.06014 [    29]: 22210
      0.05870 [     7]: 11221
      0.05459 [    20]: 21202
      0.05433 [     4]: 10222
      0.04705 [     8]: 12022
      0.03661 [    26]: 22111
      0.03292 [     0]: 01222
      0.03200 [     5]: 11122
      0.03020 [    25]: 22102
      0.02890 [    11]: 12202
      0.02616 [     1]: 02122
      0.02417 [     3]: 02221
      0.01901 [     9]: 12112
      0.01639 [    10]: 12121
      0.01508 [    21]: 21211
      0.00858 [     6]: 11212
      0.00855 [    15]: 20212
      0.00729 [    22]: 21220
      0.00535 [    17]: 21022
      0.00385 [    27]: 22120
ROOT  26:  E=   -1864.9748437001 Eh  1.768 eV  14256.0 cm**-1
      0.15665 [    12]: 12211
      0.14503 [     5]: 11122
      0.09622 [     3]: 02221
      0.06712 [    21]: 21211
      0.05710 [    25]: 22102
      0.05309 [     9]: 12112
      0.05260 [    19]: 21121
      0.04765 [    18]: 21112
      0.04663 [     1]: 02122
      0.04404 [     8]: 12022
      0.04104 [    16]: 20221
      0.03557 [    26]: 22111
      0.02307 [     7]: 11221
      0.02210 [    10]: 12121
      0.02184 [    20]: 21202
      0.01626 [    29]: 22210
      0.01581 [    13]: 12220
      0.01474 [     6]: 11212
      0.00992 [     2]: 02212
      0.00850 [    23]: 22012
      0.00634 [    22]: 21220
      0.00510 [     4]: 10222
      0.00430 [    28]: 22201
      0.00406 [    15]: 20212
      0.00273 [     0]: 01222
ROOT  27:  E=   -1864.9748436995 Eh  1.768 eV  14256.0 cm**-1
      0.14051 [     7]: 11221
      0.13452 [     9]: 12112
      0.08825 [     1]: 02122
      0.07397 [    18]: 21112
      0.07362 [    10]: 12121
      0.07290 [    28]: 22201
      0.06515 [    12]: 12211
      0.05972 [    21]: 21211
      0.05492 [     3]: 02221
      0.04173 [    14]: 20122
      0.03326 [    17]: 21022
      0.02733 [     6]: 11212
      0.02254 [    26]: 22111
      0.01769 [    13]: 12220
      0.01549 [    23]: 22012
      0.01478 [    22]: 21220
      0.01388 [     5]: 11122
      0.00942 [     0]: 01222
      0.00881 [    11]: 12202
      0.00774 [    19]: 21121
      0.00771 [    15]: 20212
      0.00374 [    29]: 22210
      0.00279 [    24]: 22021
      0.00276 [     8]: 12022
      0.00263 [    27]: 22120
ROOT  28:  E=   -1864.9163248291 Eh  3.360 eV  27099.4 cm**-1
      0.14270 [    10]: 12121
      0.12900 [    26]: 22111
      0.11667 [     4]: 10222
      0.08124 [    11]: 12202
      0.05632 [    24]: 22021
      0.05048 [     6]: 11212
      0.04931 [    18]: 21112
      0.04760 [    19]: 21121
      0.03883 [     7]: 11221
      0.03559 [    21]: 21211
      0.03553 [    12]: 12211
      0.02463 [    14]: 20122
      0.01940 [    17]: 21022
      0.01899 [    13]: 12220
      0.01760 [    20]: 21202
      0.01703 [     2]: 02212
      0.01610 [    27]: 22120
      0.01379 [    16]: 20221
      0.01343 [    28]: 22201
      0.01212 [    25]: 22102
      0.01109 [    22]: 21220
      0.01000 [     0]: 01222
      0.00867 [    29]: 22210
      0.00861 [    15]: 20212
      0.00701 [     8]: 12022
      0.00653 [     1]: 02122
      0.00578 [     5]: 11122
      0.00307 [    23]: 22012
      0.00288 [     9]: 12112
ROOT  29:  E=   -1864.9137142944 Eh  3.431 eV  27672.3 cm**-1
      0.19370 [     7]: 11221
      0.10306 [    12]: 12211
      0.09427 [    27]: 22120
      0.07470 [    25]: 22102
      0.05181 [     2]: 02212
      0.05132 [    15]: 20212
      0.05033 [    29]: 22210
      0.04335 [    20]: 21202
      0.03942 [    10]: 12121
      0.03875 [    18]: 21112
      0.03596 [    23]: 22012
      0.03219 [    14]: 20122
      0.02623 [     1]: 02122
      0.02560 [     5]: 11122
      0.01902 [     0]: 01222
      0.01797 [     6]: 11212
      0.01778 [     3]: 02221
      0.01732 [    24]: 22021
      0.01299 [    26]: 22111
      0.01037 [    28]: 22201
      0.01034 [    17]: 21022
      0.00893 [    21]: 21211
      0.00800 [     8]: 12022
      0.00404 [    11]: 12202
      0.00403 [    22]: 21220
      0.00330 [     9]: 12112
ROOT  30:  E=   -1864.9134862155 Eh  3.437 eV  27722.4 cm**-1
      0.13969 [     6]: 11212
      0.10890 [     9]: 12112
      0.10364 [    19]: 21121
      0.07769 [    18]: 21112
      0.06693 [    12]: 12211
      0.05799 [    26]: 22111
      0.05233 [     7]: 11221
      0.05075 [     5]: 11122
      0.04810 [    23]: 22012
      0.04089 [    16]: 20221
      0.03783 [     8]: 12022
      0.03067 [     3]: 02221
      0.02617 [    15]: 20212
      0.02317 [    14]: 20122
      0.02254 [    28]: 22201
      0.02069 [    24]: 22021
      0.01891 [     0]: 01222
      0.01387 [    17]: 21022
      0.01278 [     2]: 02212
      0.01257 [     4]: 10222
      0.00824 [    21]: 21211
      0.00720 [    27]: 22120
      0.00568 [    13]: 12220
      0.00441 [    29]: 22210
      0.00337 [     1]: 02122
      0.00292 [    10]: 12121
ROOT  31:  E=   -1864.9061537697 Eh  3.637 eV  29331.7 cm**-1
      0.18804 [    18]: 21112
      0.08383 [     9]: 12112
      0.08228 [    10]: 12121
      0.08208 [     7]: 11221
      0.07465 [    23]: 22012
      0.07183 [    13]: 12220
      0.06810 [    22]: 21220
      0.05276 [     2]: 02212
      0.05043 [    19]: 21121
      0.04935 [    12]: 12211
      0.04292 [    21]: 21211
      0.02357 [    27]: 22120
      0.02174 [     5]: 11122
      0.01998 [     0]: 01222
      0.01898 [    15]: 20212
      0.01867 [     3]: 02221
      0.01265 [     4]: 10222
      0.01254 [     6]: 11212
      0.01137 [     1]: 02122
      0.00602 [    24]: 22021
      0.00383 [    25]: 22102
ROOT  32:  E=   -1864.9061448944 Eh  3.637 eV  29333.6 cm**-1
      0.13320 [    13]: 12220
      0.10337 [    17]: 21022
      0.07914 [     5]: 11122
      0.07131 [    26]: 22111
      0.07123 [    11]: 12202
      0.06736 [    19]: 21121
      0.06578 [     6]: 11212
      0.05685 [     9]: 12112
      0.04564 [    21]: 21211
      0.04231 [    14]: 20122
      0.03965 [    12]: 12211
      0.02446 [    24]: 22021
      0.02395 [     3]: 02221
      0.02374 [    10]: 12121
      0.02209 [     0]: 01222
      0.02175 [     7]: 11221
      0.02139 [    18]: 21112
      0.01502 [    29]: 22210
      0.01330 [    25]: 22102
      0.01249 [    20]: 21202
      0.01224 [    28]: 22201
      0.01192 [    16]: 20221
      0.01187 [     2]: 02212
ROOT  33:  E=   -1864.9054278648 Eh  3.656 eV  29491.0 cm**-1
      0.20129 [     3]: 02221
      0.12997 [    25]: 22102
      0.08731 [    20]: 21202
      0.06550 [    19]: 21121
      0.05848 [     5]: 11122
      0.05035 [    14]: 20122
      0.04040 [    13]: 12220
      0.04025 [    17]: 21022
      0.03681 [     0]: 01222
      0.03569 [     9]: 12112
      0.02643 [    24]: 22021
      0.02613 [    26]: 22111
      0.02132 [    15]: 20212
      0.02045 [    16]: 20221
      0.02001 [    28]: 22201
      0.01758 [    10]: 12121
      0.01742 [    12]: 12211
      0.01733 [    23]: 22012
      0.01585 [     6]: 11212
      0.01434 [     4]: 10222
      0.01186 [    27]: 22120
      0.01112 [    11]: 12202
      0.01028 [     7]: 11221
      0.00973 [    21]: 21211
      0.00909 [    22]: 21220
ROOT  34:  E=   -1864.9054276033 Eh  3.656 eV  29491.1 cm**-1
      0.13863 [    18]: 21112
      0.13701 [    12]: 12211
      0.12699 [     6]: 11212
      0.12547 [    10]: 12121
      0.11382 [     7]: 11221
      0.07872 [    26]: 22111
      0.07779 [     9]: 12112
      0.04210 [     5]: 11122
      0.03053 [    23]: 22012
      0.01943 [    15]: 20212
      0.01640 [     0]: 01222
      0.01517 [    19]: 21121
      0.01003 [     2]: 02212
      0.00857 [    27]: 22120
      0.00856 [     4]: 10222
      0.00736 [    21]: 21211
      0.00675 [    16]: 20221
      0.00632 [     3]: 02221
      0.00549 [    13]: 12220
      0.00512 [    14]: 20122
      0.00409 [    29]: 22210
      0.00386 [    22]: 21220
      0.00311 [    25]: 22102
      0.00264 [    17]: 21022
ROOT  35:  E=   -1864.8089494917 Eh  6.282 eV  50665.6 cm**-1
      0.12909 [    23]: 22012
      0.12162 [    13]: 12220
      0.10258 [    17]: 21022
      0.09269 [    22]: 21220
      0.08824 [    15]: 20212
      0.05771 [    29]: 22210
      0.05257 [     0]: 01222
      0.04846 [    27]: 22120
      0.04293 [    18]: 21112
      0.03700 [     2]: 02212
      0.03678 [    20]: 21202
      0.03410 [    14]: 20122
      0.02897 [    19]: 21121
      0.01987 [     7]: 11221
      0.01869 [     3]: 02221
      0.01095 [    11]: 12202
      0.01082 [     8]: 12022
      0.00899 [     1]: 02122
      0.00842 [     4]: 10222
      0.00834 [    26]: 22111
      0.00605 [    25]: 22102
      0.00565 [     9]: 12112
      0.00553 [    24]: 22021
      0.00485 [     5]: 11122
      0.00481 [    21]: 21211
      0.00439 [    16]: 20221
      0.00438 [    10]: 12121
ROOT  36:  E=   -1864.8049802111 Eh  6.390 eV  51536.7 cm**-1
      0.22158 [    24]: 22021
      0.21081 [     3]: 02221
      0.14144 [    16]: 20221
      0.08358 [     4]: 10222
      0.06240 [    28]: 22201
      0.06133 [    14]: 20122
      0.02946 [    13]: 12220
      0.02851 [     6]: 11212
      0.02563 [     9]: 12112
      0.01804 [    27]: 22120
      0.01554 [    17]: 21022
      0.01433 [    11]: 12202
      0.01220 [    26]: 22111
      0.01149 [    15]: 20212
      0.00973 [     7]: 11221
      0.00932 [    23]: 22012
      0.00868 [    10]: 12121
      0.00701 [    25]: 22102
      0.00562 [     2]: 02212
      0.00498 [     1]: 02122
      0.00439 [     5]: 11122
      0.00256 [    19]: 21121
ROOT  37:  E=   -1864.8037464446 Eh  6.423 eV  51807.5 cm**-1
      0.19137 [    25]: 22102
      0.16320 [    27]: 22120
      0.12205 [    20]: 21202
      0.08656 [     0]: 01222
      0.07376 [    14]: 20122
      0.04869 [    12]: 12211
      0.04759 [    17]: 21022
      0.04653 [     1]: 02122
      0.03031 [     3]: 02221
      0.02615 [    28]: 22201
      0.02597 [    22]: 21220
      0.02037 [     5]: 11122
      0.01923 [     7]: 11221
      0.01795 [    13]: 12220
      0.01609 [    11]: 12202
      0.00988 [    26]: 22111
      0.00861 [    19]: 21121
      0.00750 [     2]: 02212
      0.00725 [    24]: 22021
      0.00598 [    10]: 12121
      0.00528 [    18]: 21112
      0.00464 [    21]: 21211
      0.00341 [    23]: 22012
      0.00281 [     9]: 12112
ROOT  38:  E=   -1864.7864038806 Eh  6.895 eV  55613.8 cm**-1
      0.16352 [    11]: 12202
      0.10140 [     4]: 10222
      0.08715 [    13]: 12220
      0.07264 [     6]: 11212
      0.05951 [    24]: 22021
      0.05742 [     8]: 12022
      0.04892 [    26]: 22111
      0.04080 [    20]: 21202
      0.04077 [     0]: 01222
      0.03880 [    17]: 21022
      0.03553 [    25]: 22102
      0.03504 [    28]: 22201
      0.03104 [    14]: 20122
      0.03027 [     2]: 02212
      0.02907 [     3]: 02221
      0.02569 [    27]: 22120
      0.02192 [     1]: 02122
      0.01705 [     9]: 12112
      0.01495 [    10]: 12121
      0.01280 [    22]: 21220
      0.00908 [    29]: 22210
      0.00807 [    21]: 21211
      0.00411 [    19]: 21121
      0.00378 [    18]: 21112
      0.00361 [     7]: 11221
ROOT  39:  E=   -1864.7863920729 Eh  6.896 eV  55616.3 cm**-1
      0.17364 [     2]: 02212
      0.12469 [    23]: 22012
      0.09846 [     0]: 01222
      0.09281 [    15]: 20212
      0.06652 [    29]: 22210
      0.06083 [    27]: 22120
      0.04736 [     4]: 10222
      0.04356 [    13]: 12220
      0.04199 [     6]: 11212
      0.02697 [    10]: 12121
      0.02565 [    22]: 21220
      0.02565 [     1]: 02122
      0.02525 [     8]: 12022
      0.02040 [    24]: 22021
      0.01729 [    11]: 12202
      0.01695 [     5]: 11122
      0.01577 [    12]: 12211
      0.01472 [     9]: 12112
      0.01368 [    26]: 22111
      0.01311 [    19]: 21121
      0.00918 [     7]: 11221
      0.00870 [    17]: 21022
      0.00415 [    25]: 22102
      0.00341 [    18]: 21112
      0.00274 [    20]: 21202

                 <<<<<<<<<<<<<<<<<<INITIAL CI STATE CHECK>>>>>>>>>>>>>>>>>>

   E(CAS)= -1865.018722987 Eh DE=    0.000000e+00
   --- Energy gap subspaces: Ext-Act = 1.621   Act-Int = 0.209
   --- current l-shift: Up(Ext-Act) = 1.00   Dn(Act-Int) = 1.79
   N(occ)=  1.40000 1.40000 1.40000 1.40000 1.40000
   ||g|| =     1.433828e-04 Max(G)=    3.539708e-05 Rot=264,0
   --- Orbital Update [   SuperCI]
   SUPERCI-ITER   0: DE=    -0.000000000 <r|r>=      0.000000000
   <Psi(SX)|Psi(SX)>=      1.000000000 DE(SX)=-0.000000000
   Largest coefficient in the normalized |SX> wavefunction= 0.000004609
   --- Forming Natural Orbitals

MACRO-ITERATION   2: 
   ===>>> Convergence to 3.0e-02 achieved - switching to Step=DIIS
   --- Inactive Energy E0 = -1838.60086475 Eh
CI-ITERATION   0: 
 -1865.113450256   0.000000000000 (    0.00)
 -1865.113449615   0.000000000000
 -1865.110577107   0.000000000000
 -1865.103540953   0.000000000000
 -1865.103217443   0.000000000000
 -1865.089001509   0.000000000000
 -1865.088998860   0.000000000000
 -1865.032234187   0.000000000000
 -1865.014196436   0.000000000000
 -1865.012585916   0.000000000000
   CI-PROBLEM SOLVED
   DENSITIES MADE
CI-ITERATION   0: 
 -1865.039798825   0.000000000000 (    0.00)
 -1865.039796022   0.000000000000
 -1865.026714961   0.000000000000
 -1865.026551290   0.000000000000
 -1865.026411338   0.000000000000
 -1865.026141245   0.000000000000
 -1865.021690821   0.000000000000
 -1865.016535645   0.000000000000
 -1865.016535645   0.000000000000
 -1865.009796402   0.000000000000
 -1865.009380582   0.000000000000
 -1865.005793599   0.000000000000
 -1864.995836982   0.000000000000
 -1864.995836862   0.000000000000
 -1864.992111916   0.000000000000
 -1864.992104507   0.000000000000
 -1864.987104953   0.000000000000
 -1864.987104931   0.000000000000
 -1864.985344021   0.000000000000
 -1864.985173416   0.000000000000
 -1864.983272118   0.000000000000
 -1864.982693497   0.000000000000
 -1864.982400722   0.000000000000
 -1864.977724854   0.000000000000
 -1864.977681263   0.000000000000
 -1864.976458730   0.000000000000
 -1864.974843231   0.000000000000
 -1864.974843230   0.000000000000
 -1864.916324803   0.000000000000
 -1864.913714112   0.000000000000
 -1864.913486057   0.000000000000
 -1864.906153543   0.000000000000
 -1864.906144672   0.000000000000
 -1864.905427500   0.000000000000
 -1864.905427240   0.000000000000
 -1864.808949476   0.000000000000
 -1864.804979953   0.000000000000
 -1864.803746295   0.000000000000
 -1864.786402980   0.000000000000
 -1864.786391176   0.000000000000
   CI-PROBLEM SOLVED
   DENSITIES MADE
   E(CAS)= -1865.018722982 Eh DE=    5.228230e-09
   --- Energy gap subspaces: Ext-Act = 1.596   Act-Int = 0.203
   --- current l-shift: Up(Ext-Act) = 0.50   Dn(Act-Int) = 1.30
   N(occ)=  1.40000 1.40000 1.40000 1.40000 1.40000
   ||g|| =     7.319587e-05 Max(G)=    1.297146e-05 Rot=39,13
                     ---- THE CAS-SCF ENERGY   HAS CONVERGED ----
                            --- FINALIZING ORBITALS ---
                    ---- DOING ONE FINAL ITERATION FOR PRINTING ----
   --- d-orbitals (depends on the molecular axis frame)
 L-Center:  0 Co [0.000, 0.074, 0.015] 
   --- The active space contains 5 d Orbitals : OK
 Setting 33 active MO to AO dz2     (25)
 Setting 34 active MO to AO dxz     (26)
 Setting 35 active MO to AO dyz     (27)
 Setting 36 active MO to AO dx2y2   (28)
 Setting 37 active MO to AO dxy     (29)
   --- Canonicalize Internal Space
   --- Canonicalize External Space

MACRO-ITERATION   3: 
   --- Inactive Energy E0 = -1838.60086475 Eh
   --- All densities will be recomputed
CI-ITERATION   0: 
 -1865.113450267   0.000000000000 (    0.00)
 -1865.113449626   0.000000000000
 -1865.110577117   0.000000000000
 -1865.103540958   0.000000000000
 -1865.103217453   0.000000000000
 -1865.089001509   0.000000000000
 -1865.088998856   0.000000000000
 -1865.032234197   0.000000000000
 -1865.014196436   0.000000000000
 -1865.012585920   0.000000000000
   CI-PROBLEM SOLVED
   DENSITIES MADE
CI-ITERATION   0: 
 -1865.039798851   0.000000000000 (    0.00)
 -1865.039796040   0.000000000000
 -1865.026714976   0.000000000000
 -1865.026551299   0.000000000000
 -1865.026411345   0.000000000000
 -1865.026141257   0.000000000000
 -1865.021690828   0.000000000000
 -1865.016535652   0.000000000000
 -1865.016535652   0.000000000000
 -1865.009796414   0.000000000000
 -1865.009380599   0.000000000000
 -1865.005793608   0.000000000000
 -1864.995836990   0.000000000000
 -1864.995836870   0.000000000000
 -1864.992111917   0.000000000000
 -1864.992104511   0.000000000000
 -1864.987104953   0.000000000000
 -1864.987104931   0.000000000000
 -1864.985344019   0.000000000000
 -1864.985173417   0.000000000000
 -1864.983272119   0.000000000000
 -1864.982693499   0.000000000000
 -1864.982400724   0.000000000000
 -1864.977724857   0.000000000000
 -1864.977681266   0.000000000000
 -1864.976458733   0.000000000000
 -1864.974843229   0.000000000000
 -1864.974843229   0.000000000000
 -1864.916324809   0.000000000000
 -1864.913714119   0.000000000000
 -1864.913486064   0.000000000000
 -1864.906153543   0.000000000000
 -1864.906144674   0.000000000000
 -1864.905427503   0.000000000000
 -1864.905427243   0.000000000000
 -1864.808949484   0.000000000000
 -1864.804979956   0.000000000000
 -1864.803746302   0.000000000000
 -1864.786402981   0.000000000000
 -1864.786391173   0.000000000000
   CI-PROBLEM SOLVED
   DENSITIES MADE
   E(CAS)= -1865.018722987 Eh DE=   -5.575885e-09
   --- Energy gap subspaces: Ext-Act = 0.479   Act-Int = 0.058
   --- current l-shift: Up(Ext-Act) = 0.85   Dn(Act-Int) = 1.27
   N(occ)=  1.40000 1.40000 1.40000 1.40000 1.40000
   ||g|| =     7.319531e-05 Max(G)=    2.119820e-05 Rot=38,32
--------------
CASSCF RESULTS
--------------

Final CASSCF energy       : -1865.018722987 Eh  -50749.7395 eV

----------------
ORBITAL ENERGIES
----------------

  NO   OCC          E(Eh)            E(eV) 
   0   2.0000    -286.293437     -7790.4405 
   1   2.0000     -35.989588      -979.3265 
   2   2.0000     -30.763756      -837.1244 
   3   2.0000     -30.763674      -837.1221 
   4   2.0000     -30.760388      -837.0327 
   5   2.0000     -26.808045      -729.4840 
   6   2.0000     -26.807953      -729.4815 
   7   2.0000     -26.807715      -729.4750 
   8   2.0000     -26.807639      -729.4730 
   9   2.0000     -11.910178      -324.0924 
  10   2.0000     -11.910130      -324.0911 
  11   2.0000      -5.138564      -139.8274 
  12   2.0000      -3.548515       -96.5600 
  13   2.0000      -3.548450       -96.5582 
  14   2.0000      -3.546035       -96.4925 
  15   2.0000      -2.158978       -58.7488 
  16   2.0000      -2.158887       -58.7463 
  17   2.0000      -2.085875       -56.7595 
  18   2.0000      -2.085792       -56.7573 
  19   2.0000      -1.363894       -37.1134 
  20   2.0000      -1.360826       -37.0299 
  21   2.0000      -1.238480       -33.7008 
  22   2.0000      -1.238324       -33.6965 
  23   2.0000      -1.226462       -33.3737 
  24   2.0000      -1.217296       -33.1243 
  25   2.0000      -1.179207       -32.0878 
  26   2.0000      -1.179061       -32.0839 
  27   2.0000      -1.090805       -29.6823 
  28   2.0000      -1.090752       -29.6809 
  29   2.0000      -1.088004       -29.6061 
  30   2.0000      -1.087965       -29.6050 
  31   2.0000      -0.998332       -27.1660 
  32   2.0000      -0.942967       -25.6594 
  33   1.4000      -0.875043       -23.8111 
  34   1.4000      -0.878528       -23.9060 
  35   1.4000      -0.884607       -24.0714 
  36   1.4000      -0.852091       -23.1866 
  37   1.4000      -0.878191       -23.8968 
  38   0.0000      -0.373513       -10.1638 
  39   0.0000      -0.343123        -9.3368 
  40   0.0000      -0.309431        -8.4200 
  41   0.0000      -0.282218        -7.6795 
  42   0.0000      -0.227874        -6.2008 
  43   0.0000      -0.181848        -4.9483 
  44   0.0000      -0.127272        -3.4632 
  45   0.0000      -0.100861        -2.7446 
  46   0.0000      -0.100087        -2.7235 
  47   0.0000      -0.096937        -2.6378 
  48   0.0000      -0.048875        -1.3299 
  49   0.0000      -0.046609        -1.2683 
  50   0.0000      -0.030050        -0.8177 
  51   0.0000       0.013552         0.3688 
  52   0.0000       0.015256         0.4151 
  53   0.0000       0.074382         2.0240 
  54   0.0000       0.076128         2.0716 
  55   0.0000       0.080463         2.1895 
  56   0.0000       0.094222         2.5639 
  57   0.0000       0.105862         2.8807 
  58   0.0000       0.145719         3.9652 
  59   0.0000       0.163030         4.4363 
  60   0.0000       0.198991         5.4148 
[...]
 3 106   45947.5    217.6   0.00000   0.00012   0.00000   0.00000000000609   0.17338   0.82512   0.00150
 3 107   45947.5    217.6   0.00000   0.00012   0.00000   0.00000000000624   0.21132   0.78742   0.00126
 3 108   46136.9    216.7   0.00000   0.00000   0.00000   0.00000000000012   0.99566   0.00303   0.00131
 3 109   46136.9    216.7   0.00000   0.00000   0.00000   0.00000000000781   0.99839   0.00001   0.00160
 3 110   67151.7    148.9   0.00000   0.00000   0.00000   0.00000000000001   0.98281   0.00244   0.01475
 3 111   67151.7    148.9   0.00000   0.00000   0.00000   0.00000000000000   0.56340   0.39817   0.03842
 3 112   67935.9    147.2   0.00000   0.00000   0.00000   0.00000000000004   0.20242   0.70744   0.09014
 3 113   67935.9    147.2   0.00000   0.00000   0.00000   0.00000000000002   0.69258   0.13158   0.17584
 3 114   68405.4    146.2   0.00000   0.00000   0.00000   0.00000000000007   0.55887   0.02741   0.41372
 3 115   68405.4    146.2   0.00000   0.00000   0.00000   0.00000000000007   0.55367   0.02986   0.41647
 3 116   71897.9    139.1   0.00000   0.00000   0.00000   0.00000000000078   0.86562   0.00001   0.13437
 3 117   71897.9    139.1   0.00000   0.00000   0.00000   0.00000000000310   0.96230   0.00004   0.03766
 3 118   72322.6    138.3   0.00000   0.00001   0.00000   0.00000000000207   0.86763   0.12954   0.00284
 3 119   72322.6    138.3   0.00000   0.00007   0.00000   0.00000000000411   0.27180   0.72628   0.00192

Done

                 =============================
                 AB INITIO LIGAND FIELD THEORY
                       d7 configuration
                          2 CI blocks
                         MOs 33 to 37
                 =============================

Metal/Atom center is atom 0
orbital phases =   1.0   1.0   1.0   1.0   1.0 
Metal/Atom d-orbital parts of active orbitals
Shell 15
             33        34        35        36        37
dz2     :  0.614138  0.000002 -0.000009 -0.001680 -0.000008
dxz     : -0.000027  0.613827  0.000002 -0.000006 -0.000030
dyz     :  0.000016 -0.000003  0.617618  0.000017 -0.000000
dx2y2   :  0.013773  0.000095 -0.000034  0.606886  0.000009
dxy     :  0.000018 -0.000341 -0.000027 -0.000024  0.615179
Shell 16
             33        34        35        36        37
dz2     :  0.411148  0.000008 -0.000006  0.000675  0.000002
dxz     : -0.000016  0.409468 -0.000002 -0.000001  0.000031
dyz     :  0.000021 -0.000005  0.414490  0.000002  0.000005
dx2y2   :  0.011066  0.000058 -0.000014  0.404102  0.000003
dxy     :  0.000021 -0.000176 -0.000017 -0.000021  0.409978
Shell 17
             33        34        35        36        37
dz2     :  0.211247 -0.000023  0.000021  0.000621  0.000016
dxz     : -0.000023  0.219566 -0.000003  0.000019 -0.000039
dyz     :  0.000011 -0.000006  0.213031 -0.000033 -0.000003
dx2y2   :  0.005800  0.000086 -0.000082  0.206996 -0.000028
dxy     :  0.000018 -0.000150  0.000011 -0.000039  0.220212
Shell 20
             33        34        35        36        37
dz2     : -0.004401 -0.000033  0.000100  0.021183  0.000110
dxz     :  0.000005  0.006090 -0.000019  0.000014  0.000431
dyz     :  0.000230 -0.000008  0.007139 -0.000347 -0.000071
dx2y2   :  0.021747  0.000049 -0.000112 -0.032260 -0.000156
dxy     :  0.000133  0.000428 -0.000189 -0.000093  0.002858

Adjusting phases of one-electron integrals               ... done
Adjusting phases of two-electron integrals               ... done


-----------------------------------------------------------------
Computing F0s from 2-electron integrals                  ... done 
-----------------------------------------------------------------
F0   =  0.899138731 a.u. =    24.467 eV =  197338.1 cm**-1
-----------------------------------------------------------------

Preparing for fit                                        ... done
Making fit matrices                                      ... done
Calculating ab initio Hamiltonian matrices               ... 
Calculating fit matrices                                 ... done
Fitting                                                  ... done

------------------------------
AILFT MATRIX ELEMENTS (CASSCF)
--------------------------------

Ligand field one-electron matrix VLFT (a.u.) : 
Orbital          dz2        dxz        dyz        dx2-y2     dxy
  dz2         -6.405978   0.000017  -0.000075  -0.012657  -0.000059 
  dxz          0.000017  -6.409508   0.000022  -0.000058  -0.000123 
  dyz         -0.000075   0.000022  -6.412774   0.000131  -0.000002 
  dx2-y2      -0.012657  -0.000058   0.000131  -6.389235   0.000059 
  dxy         -0.000059  -0.000123  -0.000002   0.000059  -6.408473 

-------------------------------------------------
Slater-Condon Parameters (electronic repulsion) : 
-------------------------------------------------
F0dd(from 2el Ints)     =  0.899138731 a.u. =    24.467 eV =  197338.1 cm**-1 (fixed)
F2dd                    =  0.408437042 a.u. =    11.114 eV =   89641.6 cm**-1
F4dd                    =  0.256991713 a.u. =     6.993 eV =   56403.2 cm**-1
-------------------
Racah Parameters : 
-------------------
A(F0dd from 2el Ints)   =  0.870584096 a.u. =    23.690 eV =  191071.1 cm**-1
B                       =  0.005421712 a.u. =     0.148 eV =    1189.9 cm**-1
C                       =  0.020396168 a.u. =     0.555 eV =    4476.4 cm**-1
C/B                     =  3.762
-------------------------------------------------------------------------------

-----------------------------------------
The ligand field one electron eigenfunctions:
-----------------------------------------
Orbital    Energy (eV)  Energy(cm-1)      dz2        dxz        dyz        dx2-y2     dxy
    1          0.000        0.0        -0.811352  -0.000876  -0.391674  -0.433901  -0.005362 
    2          0.000        2.3         0.342809   0.007942  -0.920064   0.189466   0.001972 
    3          0.089      715.8        -0.004852   0.993168   0.006893  -0.000592   0.116387 
    4          0.118      949.1        -0.003028  -0.116399  -0.001111  -0.005374   0.993183 
    5          0.826     6661.8         0.473453   0.002182  -0.004962  -0.880797  -0.003072 
Ligand field orbitals were stored in rho.casscf.lft.gbw

Calculating ligand field Hamiltonian matrices          ... done
Diagonalizing and fitting the ligand field Hamiltonian ... done
Calculating statistical parameters                     ... done

Reference energy AI-LFT =    -26.513052355 au
Reference energy AI     =    -26.512585515 au

------------------------------------------------
COMPARISON OF AB INITIO AND LIGAND FIELD RESULTS
------------------------------------------------

Block   1
---------
   AI-Root   0: E(AI)=    0.000 eV -> LF-Root   0:     0.000 eV    S= 0.999 Delta=    0.000 eV
   AI-Root   1: E(AI)=    0.000 eV -> LF-Root   1:     0.000 eV    S= 0.999 Delta=   -0.000 eV
   AI-Root   2: E(AI)=    0.078 eV -> LF-Root   2:     0.058 eV    S= 1.000 Delta=    0.020 eV
   AI-Root   3: E(AI)=    0.270 eV -> LF-Root   3:     0.251 eV    S= 0.996 Delta=    0.018 eV
   AI-Root   4: E(AI)=    0.278 eV -> LF-Root   4:     0.275 eV    S= 0.996 Delta=    0.003 eV
   AI-Root   5: E(AI)=    0.665 eV -> LF-Root   5:     0.722 eV    S= 0.854 Delta=   -0.057 eV
   AI-Root   6: E(AI)=    0.665 eV -> LF-Root   6:     0.722 eV    S= 0.854 Delta=   -0.057 eV
   AI-Root   7: E(AI)=    2.210 eV -> LF-Root   7:     2.155 eV    S= 1.000 Delta=    0.055 eV
   AI-Root   8: E(AI)=    2.701 eV -> LF-Root   8:     2.749 eV    S= 0.999 Delta=   -0.048 eV
   AI-Root   9: E(AI)=    2.745 eV -> LF-Root   9:     2.801 eV    S= 0.999 Delta=   -0.057 eV
   (Dropping RMS error for the reference energy)
   RMS error for this block =     0.042 eV =     336.8 cm**-1 

Block   2
---------
   AI-Root   0: E(AI)=    2.004 eV -> LF-Root   0:     2.035 eV    S= 0.968 Delta=   -0.031 eV
   AI-Root   1: E(AI)=    2.004 eV -> LF-Root   1:     2.036 eV    S= 0.968 Delta=   -0.031 eV
   AI-Root   2: E(AI)=    2.360 eV -> LF-Root   2:     2.371 eV    S= 0.860 Delta=   -0.010 eV
   AI-Root   3: E(AI)=    2.365 eV -> LF-Root   3:     2.427 eV    S= 0.907 Delta=   -0.062 eV
   AI-Root   4: E(AI)=    2.368 eV -> LF-Root   4:     2.427 eV    S= 0.847 Delta=   -0.058 eV
   AI-Root   5: E(AI)=    2.376 eV -> LF-Root   5:     2.382 eV    S= 0.921 Delta=   -0.006 eV
   AI-Root   6: E(AI)=    2.497 eV -> LF-Root   6:     2.489 eV    S= 1.000 Delta=    0.008 eV
   AI-Root   7: E(AI)=    2.637 eV -> LF-Root   7:     2.605 eV    S= 0.962 Delta=    0.032 eV
   AI-Root   8: E(AI)=    2.637 eV -> LF-Root   8:     2.605 eV    S= 0.962 Delta=    0.032 eV
   AI-Root   9: E(AI)=    2.821 eV -> LF-Root   9:     2.840 eV    S= 0.996 Delta=   -0.019 eV
   AI-Root  10: E(AI)=    2.832 eV -> LF-Root  10:     2.865 eV    S= 0.995 Delta=   -0.033 eV
   AI-Root  11: E(AI)=    2.929 eV -> LF-Root  11:     2.982 eV    S= 0.999 Delta=   -0.052 eV
   AI-Root  12: E(AI)=    3.200 eV -> LF-Root  12:     3.170 eV    S= 0.919 Delta=    0.030 eV
   AI-Root  13: E(AI)=    3.200 eV -> LF-Root  13:     3.170 eV    S= 0.919 Delta=    0.030 eV
   AI-Root  14: E(AI)=    3.302 eV -> LF-Root  14:     3.293 eV    S= 0.968 Delta=    0.009 eV
   AI-Root  15: E(AI)=    3.302 eV -> LF-Root  15:     3.294 eV    S= 0.967 Delta=    0.008 eV
   AI-Root  16: E(AI)=    3.438 eV -> LF-Root  16:     3.468 eV    S= 0.838 Delta=   -0.030 eV
   AI-Root  17: E(AI)=    3.438 eV -> LF-Root  17:     3.468 eV    S= 0.838 Delta=   -0.030 eV
   AI-Root  18: E(AI)=    3.486 eV -> LF-Root  18:     3.502 eV    S= 0.992 Delta=   -0.016 eV
   AI-Root  19: E(AI)=    3.491 eV -> LF-Root  19:     3.516 eV    S= 0.991 Delta=   -0.026 eV
   AI-Root  20: E(AI)=    3.542 eV -> LF-Root  20:     3.530 eV    S= 0.921 Delta=    0.013 eV
   AI-Root  21: E(AI)=    3.558 eV -> LF-Root  21:     3.586 eV    S= 0.997 Delta=   -0.028 eV
   AI-Root  22: E(AI)=    3.566 eV -> LF-Root  22:     3.589 eV    S= 0.921 Delta=   -0.023 eV
   AI-Root  23: E(AI)=    3.693 eV -> LF-Root  23:     3.710 eV    S= 0.962 Delta=   -0.016 eV
   AI-Root  24: E(AI)=    3.694 eV -> LF-Root  24:     3.711 eV    S= 0.963 Delta=   -0.017 eV
   AI-Root  25: E(AI)=    3.728 eV -> LF-Root  25:     3.699 eV    S= 1.000 Delta=    0.029 eV
   AI-Root  26: E(AI)=    3.772 eV -> LF-Root  26:     3.818 eV    S= 0.988 Delta=   -0.046 eV
   AI-Root  27: E(AI)=    3.772 eV -> LF-Root  27:     3.818 eV    S= 0.988 Delta=   -0.046 eV
   AI-Root  28: E(AI)=    5.364 eV -> LF-Root  28:     5.399 eV    S= 1.000 Delta=   -0.035 eV
   AI-Root  29: E(AI)=    5.435 eV -> LF-Root  29:     5.454 eV    S= 0.999 Delta=   -0.019 eV
   AI-Root  30: E(AI)=    5.441 eV -> LF-Root  30:     5.464 eV    S= 0.999 Delta=   -0.023 eV
   AI-Root  31: E(AI)=    5.641 eV -> LF-Root  31:     5.654 eV    S= 1.000 Delta=   -0.013 eV
   AI-Root  32: E(AI)=    5.641 eV -> LF-Root  32:     5.654 eV    S= 1.000 Delta=   -0.013 eV
   AI-Root  33: E(AI)=    5.661 eV -> LF-Root  33:     5.683 eV    S= 0.991 Delta=   -0.022 eV
   AI-Root  34: E(AI)=    5.661 eV -> LF-Root  34:     5.683 eV    S= 0.991 Delta=   -0.022 eV
   AI-Root  35: E(AI)=    8.286 eV -> LF-Root  35:     8.240 eV    S= 1.000 Delta=    0.045 eV
   AI-Root  36: E(AI)=    8.394 eV -> LF-Root  36:     8.418 eV    S= 0.999 Delta=   -0.024 eV
   AI-Root  37: E(AI)=    8.427 eV -> LF-Root  37:     8.455 eV    S= 0.999 Delta=   -0.027 eV
   AI-Root  38: E(AI)=    8.899 eV -> LF-Root  38:     8.885 eV    S= 0.999 Delta=    0.015 eV
   AI-Root  39: E(AI)=    8.900 eV -> LF-Root  39:     8.886 eV    S= 0.999 Delta=    0.014 eV
   RMS error for this block =     0.029 eV =     237.1 cm**-1 

Total RMS error g=     0.032 eV =     258.3 cm**-1
Note: Dropped RMS error for the reference energy.

Confidence intervals (95%) computed from the square root of the
diagonal elements of the covariance matrix:
H(dz2   ,dz2   )=  0.000189091 a.u. =     0.005 eV =      41.5 cm**-1
H(dxz   ,dz2   )=  0.000159973 a.u. =     0.004 eV =      35.1 cm**-1
H(dxz   ,dxz   )=  0.000189091 a.u. =     0.005 eV =      41.5 cm**-1
H(dyz   ,dz2   )=  0.000159973 a.u. =     0.004 eV =      35.1 cm**-1
H(dyz   ,dxz   )=  0.000159973 a.u. =     0.004 eV =      35.1 cm**-1
H(dyz   ,dyz   )=  0.000189091 a.u. =     0.005 eV =      41.5 cm**-1
H(dx2-y2,dz2   )=  0.000159973 a.u. =     0.004 eV =      35.1 cm**-1
H(dx2-y2,dxz   )=  0.000159973 a.u. =     0.004 eV =      35.1 cm**-1
H(dx2-y2,dyz   )=  0.000159973 a.u. =     0.004 eV =      35.1 cm**-1
H(dx2-y2,dx2-y2)=  0.000189091 a.u. =     0.005 eV =      41.5 cm**-1
H(dxy   ,dz2   )=  0.000159973 a.u. =     0.004 eV =      35.1 cm**-1
H(dxy   ,dxz   )=  0.000159973 a.u. =     0.004 eV =      35.1 cm**-1
H(dxy   ,dyz   )=  0.000159973 a.u. =     0.004 eV =      35.1 cm**-1
H(dxy   ,dx2-y2)=  0.000159973 a.u. =     0.004 eV =      35.1 cm**-1
H(dxy   ,dxy   )=  0.000189091 a.u. =     0.005 eV =      41.5 cm**-1
F2dd            =  0.000679060 a.u. =     0.018 eV =     149.0 cm**-1
F4dd            =  0.000984878 a.u. =     0.027 eV =     216.2 cm**-1
Pearson's correlation coefficient =    1.000 (should be close to 1)

----------------------------------------------
SPIN ORBIT COUPLING (based on CASSCF orbitals)
----------------------------------------------

AI-SOC-X integrals (cm-1)
                  0          1          2          3          4    
      0       0.000000  -0.018966 907.830847  -0.005993  -0.026600
      1       0.018966  -0.000000   0.063474  -0.016042 514.327720
      2     -907.830847  -0.063474  -0.000000 -508.793071   0.003386
      3       0.005993   0.016042 508.793071   0.000000  -0.004854
      4       0.026600 -514.327720  -0.003386   0.004854   0.000000
AI-SOC-Y integrals (cm-1)
                  0          1          2          3          4    
      0       0.000000 -879.123523   0.011628   0.033520  -0.009653
      1     879.123523  -0.000000  -0.268989 -510.067630  -0.017589
      2      -0.011628   0.268989  -0.000000   0.023191 -518.472814
      3      -0.033520 510.067630  -0.023191   0.000000  -0.002565
      4       0.009653   0.017589 518.472814   0.002565   0.000000
AI-SOC-Z integrals (cm-1)
                  0          1          2          3          4    
      0      -0.000000   0.038199   0.020510   0.035670 -23.767501
      1      -0.038199  -0.000000 -517.433937  -0.526876  -0.154961
      2      -0.020510 517.433937  -0.000000  -0.050903   0.034261
      3      -0.035670   0.526876   0.050903  -0.000000 -1017.882596
      4      23.767501   0.154961  -0.034261 1017.882596   0.000000

Fit to the SOC matrix elements
a = 15.000000
b =     0.955 eV =    7700.0 cm**-1
SOC constant zeta =     0.064 eV =     513.3 cm**-1


LF-SOC-X integrals (cm-1)
                  0          1          2          3          4    
      0       0.000000  -0.000000 889.114348  -0.000000  -0.000000
      1       0.000000   0.000000  -0.000000  -0.000000 513.330408
      2     -889.114348   0.000000   0.000000 -513.330408  -0.000000
      3       0.000000   0.000000 513.330408   0.000000  -0.000000
      4       0.000000 -513.330408   0.000000   0.000000   0.000000
LF-SOC-Y integrals (cm-1)
                  0          1          2          3          4    
      0       0.000000 -889.114348  -0.000000  -0.000000  -0.000000
      1     889.114348   0.000000  -0.000000 -513.330408  -0.000000
      2       0.000000   0.000000   0.000000  -0.000000 -513.330408
      3       0.000000 513.330408   0.000000   0.000000  -0.000000
      4       0.000000   0.000000 513.330408   0.000000   0.000000
LF-SOC-Z integrals (cm-1)
                  0          1          2          3          4    
      0       0.000000  -0.000000  -0.000000  -0.000000  -0.000000
      1       0.000000   0.000000 -513.330408  -0.000000  -0.000000
      2       0.000000 513.330408   0.000000  -0.000000  -0.000000
      3       0.000000   0.000000   0.000000   0.000000 -1026.660816
      4       0.000000   0.000000   0.000000 1026.660816   0.000000

RMS error of nonzero matrix elements =    9.9 cm**-1


-----SOC-CONSTANTS-----
---All Values in cm-1---
ZETA_D = 513.33 
------------------------




---AILFT COMPLETED SUCCESFULLY!---

--------------
CASSCF TIMINGS
--------------

Total time                       ...       20.8 sec
Sum of individual times          ...       20.1 sec ( 96.6%)

Calculation of AO operators
   F(Core) operator              ...        5.7 sec ( 27.4%)
   G(Act) operator               ...        3.3 sec ( 16.0%)
   J(AO) operators               ...        0.0 sec (  0.0%)
Calculation of MO transformed quantities
   J(MO) operators               ...        0.7 sec (  3.2%)
   (pq|rs) integrals             ...        0.0 sec (  0.0%)
   AO->MO one electron integrals ...        0.0 sec (  0.1%)
Configuration interaction steps
   CI-setup phase                ...        0.0 sec (  0.0%)
   CI-solution phase             ...        0.1 sec (  0.4%)
   Generation of densities       ...        0.0 sec (  0.1%)
Orbital improvement steps
   Orbital gradient              ...        0.0 sec (  0.1%)
   O(1) converger                ...        0.0 sec (  0.1%)
Properties                       ...        6.5 sec ( 31.3%)
   SOC integral calculation      ...        3.6 sec ( 17.3%)
   SSC RMEs (incl. integrals)    ...        0.0 sec (  0.0%)
   SOC RMEs                      ...        0.1 sec (  0.5%)

Maximum memory used throughout the entire CASSCF-calculation: 286.4 MB

-------------------------   --------------------
FINAL SINGLE POINT ENERGY     -1865.018722987363
-------------------------   --------------------


                            ***************************************
                            *     ORCA property calculations      *
                            ***************************************

                                    ---------------------
                                    Active property flags
                                    ---------------------
   (+) Dipole Moment


------------------------------------------------------------------------------
                       ORCA ELECTRIC PROPERTIES CALCULATION
------------------------------------------------------------------------------

Dipole Moment Calculation                       ... on
Quadrupole Moment Calculation                   ... off
Polarizability Calculation                      ... off
GBWName                                         ... rho.gbw
Electron density                                ... rho.scfp
The origin for moment calculation is the CENTER OF MASS  = ( 0.000060,  0.018754  0.003899)

-------------
DIPOLE MOMENT
-------------
                                X             Y             Z
Electronic contribution:     -0.00019       0.11423       0.02341
Nuclear contribution   :     -0.00025      -0.06345      -0.01362
                        -----------------------------------------
Total Dipole Moment    :     -0.00044       0.05078       0.00979
                        -----------------------------------------
Magnitude (a.u.)       :      0.05172
Magnitude (Debye)      :      0.13145



--------------------
Rotational spectrum 
--------------------
 
Rotational constants in cm-1:     0.197387     0.023929     0.022145 
Rotational constants in MHz :  5917.510188   717.387552   663.893915 

 Dipole components along the rotational axes: 
x,y,z [a.u.] :    -0.000393     0.049031     0.016444 
x,y,z [Debye]:    -0.001000     0.124626     0.041797 

 

Timings for individual modules:

Sum of individual times         ...       31.521 sec (=   0.525 min)
GTO integral calculation        ...        3.804 sec (=   0.063 min)  12.1 %
Relativistic integrals          ...        1.321 sec (=   0.022 min)   4.2 %
SCF iterations                  ...        1.438 sec (=   0.024 min)   4.6 %
CASSCF iterations               ...       24.958 sec (=   0.416 min)  79.2 %
                             ****ORCA TERMINATED NORMALLY****
TOTAL RUN TIME: 0 days 0 hours 0 minutes 34 seconds 748 msec
