
                                 *****************
                                 * O   R   C   A *
                                 *****************

                                            #,                                       
                                            ###                                      
                                            ####                                     
                                            #####                                    
                                            ######                                   
                                           ########,                                 
                                     ,,################,,,,,                         
                               ,,#################################,,                 
                          ,,##########################################,,             
                       ,#########################################, ''#####,          
                    ,#############################################,,   '####,        
                  ,##################################################,,,,####,       
                ,###########''''           ''''###############################       
              ,#####''   ,,,,##########,,,,          '''####'''          '####       
            ,##' ,,,,###########################,,,                        '##       
           ' ,,###''''                  '''############,,,                           
         ,,##''                                '''############,,,,        ,,,,,,###''
      ,#''                                            '''#######################'''  
     '                                                          ''''####''''         
             ,#######,   #######,   ,#######,      ##                                
            ,#'     '#,  ##    ##  ,#'     '#,    #''#        ######   ,####,        
            ##       ##  ##   ,#'  ##            #'  '#       #        #'  '#        
            ##       ##  #######   ##           ,######,      #####,   #    #        
            '#,     ,#'  ##    ##  '#,     ,#' ,#      #,         ##   #,  ,#        
             '#######'   ##     ##  '#######'  #'      '#     #####' # '####'        



                  #######################################################
                  #                        -***-                        #
                  #          Department of theory and spectroscopy      #
                  #    Directorship and core code : Frank Neese         #
                  #        Max Planck Institute fuer Kohlenforschung    #
                  #                Kaiser Wilhelm Platz 1               #
                  #                 D-45470 Muelheim/Ruhr               #
                  #                      Germany                        #
                  #                                                     #
                  #                  All rights reserved                #
                  #                        -***-                        #
                  #######################################################


                         Program Version 5.0.4 -  RELEASE  -


 With contributions from (in alphabetic order):
   Daniel Aravena         : Magnetic Suceptibility
   Michael Atanasov       : Ab Initio Ligand Field Theory (pilot matlab implementation)
   Alexander A. Auer      : GIAO ZORA, VPT2 properties, NMR spectrum
   Ute Becker             : Parallelization
   Giovanni Bistoni       : ED, misc. LED, open-shell LED, HFLD
   Martin Brehm           : Molecular dynamics
   Dmytro Bykov           : SCF Hessian
   Vijay G. Chilkuri      : MRCI spin determinant printing, contributions to CSF-ICE
   Dipayan Datta          : RHF DLPNO-CCSD density
   Achintya Kumar Dutta   : EOM-CC, STEOM-CC
   Dmitry Ganyushin       : Spin-Orbit,Spin-Spin,Magnetic field MRCI
   Miquel Garcia          : C-PCM and meta-GGA Hessian, CC/C-PCM, Gaussian charge scheme
   Yang Guo               : DLPNO-NEVPT2, F12-NEVPT2, CIM, IAO-localization
   Andreas Hansen         : Spin unrestricted coupled pair/coupled cluster methods
   Benjamin Helmich-Paris : MC-RPA, TRAH-SCF, COSX integrals
   Lee Huntington         : MR-EOM, pCC
   Robert Izsak           : Overlap fitted RIJCOSX, COSX-SCS-MP3, EOM
   Marcus Kettner         : VPT2
   Christian Kollmar      : KDIIS, OOCD, Brueckner-CCSD(T), CCSD density, CASPT2, CASPT2-K
   Simone Kossmann        : Meta GGA functionals, TD-DFT gradient, OOMP2, MP2 Hessian
   Martin Krupicka        : Initial AUTO-CI
   Lucas Lang             : DCDCAS
   Marvin Lechner         : AUTO-CI (C++ implementation), FIC-MRCC
   Dagmar Lenk            : GEPOL surface, SMD
   Dimitrios Liakos       : Extrapolation schemes; Compound Job, initial MDCI parallelization
   Dimitrios Manganas     : Further ROCIS development; embedding schemes
   Dimitrios Pantazis     : SARC Basis sets
   Anastasios Papadopoulos: AUTO-CI, single reference methods and gradients
   Taras Petrenko         : DFT Hessian,TD-DFT gradient, ASA, ECA, R-Raman, ABS, FL, XAS/XES, NRVS
   Peter Pinski           : DLPNO-MP2, DLPNO-MP2 Gradient
   Christoph Reimann      : Effective Core Potentials
   Marius Retegan         : Local ZFS, SOC
   Christoph Riplinger    : Optimizer, TS searches, QM/MM, DLPNO-CCSD(T), (RO)-DLPNO pert. Triples
   Tobias Risthaus        : Range-separated hybrids, TD-DFT gradient, RPA, STAB
   Michael Roemelt        : Original ROCIS implementation
   Masaaki Saitow         : Open-shell DLPNO-CCSD energy and density
   Barbara Sandhoefer     : DKH picture change effects
   Avijit Sen             : IP-ROCIS
   Kantharuban Sivalingam : CASSCF convergence, NEVPT2, FIC-MRCI
   Bernardo de Souza      : ESD, SOC TD-DFT
   Georgi Stoychev        : AutoAux, RI-MP2 NMR, DLPNO-MP2 response
   Willem Van den Heuvel  : Paramagnetic NMR
   Boris Wezisla          : Elementary symmetry handling
   Frank Wennmohs         : Technical directorship


 We gratefully acknowledge several colleagues who have allowed us to
 interface, adapt or use parts of their codes:
   Stefan Grimme, W. Hujo, H. Kruse, P. Pracht,  : VdW corrections, initial TS optimization,
                  C. Bannwarth, S. Ehlert          DFT functionals, gCP, sTDA/sTD-DF
   Ed Valeev, F. Pavosevic, A. Kumar             : LibInt (2-el integral package), F12 methods
   Garnet Chan, S. Sharma, J. Yang, R. Olivares  : DMRG
   Ulf Ekstrom                                   : XCFun DFT Library
   Mihaly Kallay                                 : mrcc  (arbitrary order and MRCC methods)
   Jiri Pittner, Ondrej Demel                    : Mk-CCSD
   Frank Weinhold                                : gennbo (NPA and NBO analysis)
   Christopher J. Cramer and Donald G. Truhlar   : smd solvation model
   Lars Goerigk                                  : TD-DFT with DH, B97 family of functionals
   V. Asgeirsson, H. Jonsson                     : NEB implementation
   FAccTs GmbH                                   : IRC, NEB, NEB-TS, DLPNO-Multilevel, CI-OPT
                                                   MM, QMMM, 2- and 3-layer-ONIOM, Crystal-QMMM,
                                                   LR-CPCM, SF, NACMEs, symmetry and pop. for TD-DFT,
                                                   nearIR, NL-DFT gradient (VV10), updates on ESD,
                                                   ML-optimized integration grids
   S Lehtola, MJT Oliveira, MAL Marques          : LibXC Library
   Liviu Ungur et al                             : ANISO software


 Your calculation uses the libint2 library for the computation of 2-el integrals
 For citations please refer to: http://libint.valeyev.net

 Your ORCA version has been built with support for libXC version: 5.1.0
 For citations please refer to: https://tddft.org/programs/libxc/

 This ORCA versions uses:
   CBLAS   interface :  Fast vector & matrix operations
   LAPACKE interface :  Fast linear algebra routines
   SCALAPACK package :  Parallel linear algebra routines
   Shared memory     :  Shared parallel matrices
   BLAS/LAPACK       :  OpenBLAS 0.3.15  USE64BITINT DYNAMIC_ARCH NO_AFFINITY Zen SINGLE_THREADED
        Core in use  :  Zen
   Copyright (c) 2011-2014, The OpenBLAS Project




***************************************
The coordinates will be read from file: geo.xyz
***************************************


================================================================================

----- Orbital basis set information -----
Your calculation utilizes the basis: DKH-def2-TZVPP
   Exponents from def2-TZVPP [F. Weigend and R. Ahlrichs, Phys. Chem. Chem. Phys. 7, 3297 (2005)],
   recontracted for DKH2 by D. A. Pantazis.

----- AuxJ basis set information -----
Your calculation utilizes the AutoAux generation procedure.
  G. L. Stoychev, A. A. Auer, F. Neese, J. Chem. Theory Comput. 13, 554 (2017)

----- AuxC basis set information -----
Your calculation utilizes the AutoAux generation procedure.
  G. L. Stoychev, A. A. Auer, F. Neese, J. Chem. Theory Comput. 13, 554 (2017)

----- AuxJK basis set information -----
Your calculation utilizes the AutoAux generation procedure.
  G. L. Stoychev, A. A. Auer, F. Neese, J. Chem. Theory Comput. 13, 554 (2017)

================================================================================
                                        WARNINGS
                       Please study these warnings very carefully!
================================================================================


INFO   : the flag for use of the SHARK integral package has been found!

================================================================================
                                       INPUT FILE
================================================================================
NAME = rho.inp
|  1> !CASSCF  DKH DKH-def2-TZVPP  RIJCOSX NoSFitting VeryTightSCF autoaux moread SlowConv
|  2> %moinp "orb.gbw"
|  3> %pal
|  4> nprocs 10
|  5> end
|  6> %maxcore 4000
|  7> # swap
|  8> %scf
|  9>  Rotate
| 10>   { 36, 33 }
| 11>  end
| 12> end
| 13> #
| 14> %rel
| 15>  picturechange 2
| 16> end
| 17> %casscf
| 18>  nel  7
| 19>  norb 5
| 20>  mult 4,2
| 21>  nroots 10,40
| 22>  maxiter 100
| 23>  ActOrbs dOrbs
| 24>  rel
| 25>   printlevel 3
| 26>   dosoc true
| 27>   gtensor true
| 28>   quad true
| 29>  end
| 30> end
| 31> * xyzfile 2 4 geo.xyz *
| 32> 
| 33>                          ****END OF INPUT****
================================================================================

                       ****************************
                       * Single Point Calculation *
                       ****************************

---------------------------------
CARTESIAN COORDINATES (ANGSTROEM)
---------------------------------
  Co     0.001743   -0.192855    0.183536
  O      1.852060   -0.208196    0.165667
  H      2.367085   -0.786142   -0.438650
  C      2.848432    0.594831    1.039517
  H      3.119317   -0.108817    1.838269
  H      2.234775    1.412446    1.438266
  C      4.004822    1.043015    0.197709
  H      4.696269    1.580201    0.867803
  H      4.571174    0.196703   -0.217981
  H      3.704703    1.733845   -0.599151
  O     -1.847748   -0.213998    0.236130
  H     -2.362753    0.348726    0.854650
  C     -2.841915   -1.060404   -0.597388
  H     -3.096091   -1.895108    0.069874
  H     -2.232415   -1.413038   -1.439020
  C     -4.013020   -0.212807   -0.994000
  H     -4.701410   -0.865114   -1.556360
  H     -4.575858    0.154940   -0.123542
  H     -3.729172    0.620171   -1.648135

----------------------------
CARTESIAN COORDINATES (A.U.)
----------------------------
  NO LB      ZA    FRAG     MASS         X           Y           Z
   0 Co   27.0000    0    58.930    0.003293   -0.364443    0.346833
   1 O     8.0000    0    15.999    3.499886   -0.393433    0.313065
   2 H     1.0000    0     1.008    4.473143   -1.485592   -0.828928
   3 C     6.0000    0    12.011    5.382757    1.124068    1.964403
   4 H     1.0000    0     1.008    5.894654   -0.205635    3.473825
   5 H     1.0000    0     1.008    4.223112    2.669137    2.717929
   6 C     6.0000    0    12.011    7.568017    1.971013    0.373616
   7 H     1.0000    0     1.008    8.874663    2.986148    1.639911
   8 H     1.0000    0     1.008    8.638267    0.371715   -0.411925
   9 H     1.0000    0     1.008    7.000875    3.276492   -1.132232
  10 O     8.0000    0    15.999   -3.491737   -0.404398    0.446220
  11 H     1.0000    0     1.008   -4.464956    0.658997    1.615055
  12 C     6.0000    0    12.011   -5.370440   -2.003873   -1.128899
  13 H     1.0000    0     1.008   -5.850764   -3.581236    0.132043
  14 H     1.0000    0     1.008   -4.218653   -2.670255   -2.719353
  15 C     6.0000    0    12.011   -7.583508   -0.402148   -1.878388
  16 H     1.0000    0     1.008   -8.884377   -1.634829   -2.941095
  17 H     1.0000    0     1.008   -8.647118    0.292795   -0.233460
  18 H     1.0000    0     1.008   -7.047114    1.171953   -3.114523

--------------------------------
INTERNAL COORDINATES (ANGSTROEM)
--------------------------------
 Co     0   0   0     0.000000000000     0.00000000     0.00000000
 O      1   0   0     1.850467160054     0.00000000     0.00000000
 H      2   1   0     0.982074804035   122.35777036     0.00000000
 C      2   1   3     1.549588587332   129.28644483   181.18553322
 H      4   2   1     1.098409390267   103.69046761    97.25915388
 H      4   2   1     1.097301682000   103.38358370   341.83620559
 C      4   2   1     1.498915645843   109.53010278   219.52244217
 H      7   4   2     1.102585532182   106.74829641   181.68195871
 H      7   4   2     1.099907570366   112.29825964   297.86990491
 H      7   4   2     1.096495842304   112.66639422    63.49266374
 O      1   2   3     1.850358630913   178.44019106    89.84958317
 H     11   1   2     0.982067376123   122.37899982    89.70110433
 C     11   1   2     1.549038871849   129.23066174   270.52047366
 H     13  11   1     1.098442518822   103.70107672    98.20782362
 H     13  11   1     1.097353610322   103.40370179   342.82388133
 C     13  11   1     1.499069086546   109.56044046   220.48683840
 H     16  13  11     1.102558066885   106.74961871   181.62874032
 H     16  13  11     1.099874447971   112.29874996   297.84069209
 H     16  13  11     1.096500590497   112.65189479    63.41514498

---------------------------
INTERNAL COORDINATES (A.U.)
---------------------------
 Co     0   0   0     0.000000000000     0.00000000     0.00000000
 O      1   0   0     3.496876152318     0.00000000     0.00000000
 H      2   1   0     1.855852422651   122.35777036     0.00000000
 C      2   1   3     2.928298050307   129.28644483   181.18553322
 H      4   2   1     2.075692930532   103.69046761    97.25915388
 H      4   2   1     2.073599665272   103.38358370   341.83620559
 C      4   2   1     2.832540068494   109.53010278   219.52244217
 H      7   4   2     2.083584695048   106.74829641   181.68195871
 H      7   4   2     2.078524080618   112.29825964   297.86990491
 H      7   4   2     2.072076848937   112.66639422    63.49266374
 O      1   2   3     3.496671061962   178.44019106    89.84958317
 H     11   1   2     1.855838385932   122.37899982    89.70110433
 C     11   1   2     2.927259238593   129.23066174   270.52047366
 H     13  11   1     2.075755534428   103.70107672    98.20782362
 H     13  11   1     2.073697795579   103.40370179   342.82388133
 C     13  11   1     2.832830029400   109.56044046   220.48683840
 H     16  13  11     2.083532793159   106.74961871   181.62874032
 H     16  13  11     2.078461488364   112.29874996   297.84069209
 H     16  13  11     2.072085821723   112.65189479    63.41514498

---------------------
BASIS SET INFORMATION
---------------------
There are 4 groups of distinct atoms

 Group   1 Type Co  : 17s12p7d2f1g contracted to 10s7p4d2f1g pattern {8111111111/6111111/4111/11/1}
 Group   2 Type O   : 11s6p2d1f contracted to 6s3p2d1f pattern {611111/411/11/1}
 Group   3 Type H   : 5s2p1d contracted to 3s2p1d pattern {311/11/1}
 Group   4 Type C   : 11s6p2d1f contracted to 6s3p2d1f pattern {611111/411/11/1}

Atom   0Co   basis set group =>   1
Atom   1O    basis set group =>   2
Atom   2H    basis set group =>   3
Atom   3C    basis set group =>   4
Atom   4H    basis set group =>   3
Atom   5H    basis set group =>   3
Atom   6C    basis set group =>   4
Atom   7H    basis set group =>   3
Atom   8H    basis set group =>   3
Atom   9H    basis set group =>   3
Atom  10O    basis set group =>   2
Atom  11H    basis set group =>   3
Atom  12C    basis set group =>   4
Atom  13H    basis set group =>   3
Atom  14H    basis set group =>   3
Atom  15C    basis set group =>   4
Atom  16H    basis set group =>   3
Atom  17H    basis set group =>   3
Atom  18H    basis set group =>   3
---------------------------------
AUXILIARY/J BASIS SET INFORMATION
---------------------------------
There are 4 groups of distinct atoms

 Group   1 Type Co  : 22s18p17d17f16g6h3i contracted to 22s18p17d17f16g6h3i pattern {1111111111111111111111/111111111111111111/11111111111111111/11111111111111111/1111111111111111/111111/111}
 Group   2 Type O   : 16s13p12d7f3g contracted to 16s13p12d7f3g pattern {1111111111111111/1111111111111/111111111111/1111111/111}
 Group   3 Type H   : 11s4p3d2f contracted to 11s4p3d2f pattern {11111111111/1111/111/11}
 Group   4 Type C   : 16s13p12d7f3g contracted to 16s13p12d7f3g pattern {1111111111111111/1111111111111/111111111111/1111111/111}

Atom   0Co   basis set group =>   1
Atom   1O    basis set group =>   2
Atom   2H    basis set group =>   3
Atom   3C    basis set group =>   4
Atom   4H    basis set group =>   3
Atom   5H    basis set group =>   3
Atom   6C    basis set group =>   4
Atom   7H    basis set group =>   3
Atom   8H    basis set group =>   3
Atom   9H    basis set group =>   3
Atom  10O    basis set group =>   2
Atom  11H    basis set group =>   3
Atom  12C    basis set group =>   4
Atom  13H    basis set group =>   3
Atom  14H    basis set group =>   3
Atom  15C    basis set group =>   4
Atom  16H    basis set group =>   3
Atom  17H    basis set group =>   3
Atom  18H    basis set group =>   3
---------------------------------
AUXILIARY/C BASIS SET INFORMATION
---------------------------------
There are 4 groups of distinct atoms

 Group   1 Type Co  : 22s18p17d17f16g6h3i contracted to 22s18p17d17f16g6h3i pattern {1111111111111111111111/111111111111111111/11111111111111111/11111111111111111/1111111111111111/111111/111}
 Group   2 Type O   : 16s13p12d7f3g contracted to 16s13p12d7f3g pattern {1111111111111111/1111111111111/111111111111/1111111/111}
 Group   3 Type H   : 11s4p3d2f contracted to 11s4p3d2f pattern {11111111111/1111/111/11}
 Group   4 Type C   : 16s13p12d7f3g contracted to 16s13p12d7f3g pattern {1111111111111111/1111111111111/111111111111/1111111/111}

Atom   0Co   basis set group =>   1
Atom   1O    basis set group =>   2
Atom   2H    basis set group =>   3
Atom   3C    basis set group =>   4
Atom   4H    basis set group =>   3
Atom   5H    basis set group =>   3
Atom   6C    basis set group =>   4
Atom   7H    basis set group =>   3
Atom   8H    basis set group =>   3
Atom   9H    basis set group =>   3
Atom  10O    basis set group =>   2
Atom  11H    basis set group =>   3
Atom  12C    basis set group =>   4
Atom  13H    basis set group =>   3
Atom  14H    basis set group =>   3
Atom  15C    basis set group =>   4
Atom  16H    basis set group =>   3
Atom  17H    basis set group =>   3
Atom  18H    basis set group =>   3
----------------------------------
AUXILIARY/JK BASIS SET INFORMATION
----------------------------------
There are 4 groups of distinct atoms

 Group   1 Type Co  : 22s18p17d17f16g6h3i contracted to 22s18p17d17f16g6h3i pattern {1111111111111111111111/111111111111111111/11111111111111111/11111111111111111/1111111111111111/111111/111}
 Group   2 Type O   : 16s13p12d7f3g contracted to 16s13p12d7f3g pattern {1111111111111111/1111111111111/111111111111/1111111/111}
 Group   3 Type H   : 11s4p3d2f contracted to 11s4p3d2f pattern {11111111111/1111/111/11}
 Group   4 Type C   : 16s13p12d7f3g contracted to 16s13p12d7f3g pattern {1111111111111111/1111111111111/111111111111/1111111/111}

Atom   0Co   basis set group =>   1
Atom   1O    basis set group =>   2
Atom   2H    basis set group =>   3
Atom   3C    basis set group =>   4
Atom   4H    basis set group =>   3
Atom   5H    basis set group =>   3
Atom   6C    basis set group =>   4
Atom   7H    basis set group =>   3
Atom   8H    basis set group =>   3
Atom   9H    basis set group =>   3
Atom  10O    basis set group =>   2
Atom  11H    basis set group =>   3
Atom  12C    basis set group =>   4
Atom  13H    basis set group =>   3
Atom  14H    basis set group =>   3
Atom  15C    basis set group =>   4
Atom  16H    basis set group =>   3
Atom  17H    basis set group =>   3
Atom  18H    basis set group =>   3


           ************************************************************
           *        Program running with 10 parallel MPI-processes    *
           *              working on a common directory               *
           ************************************************************
------------------------------------------------------------------------------
                           ORCA GTO INTEGRAL CALCULATION
                           -- RI-GTO INTEGRALS CHOSEN --
------------------------------------------------------------------------------
------------------------------------------------------------------------------
                   ___                                                        
                  /   \      - P O W E R E D   B Y -                         
                 /     \                                                     
                 |  |  |   _    _      __       _____    __    __             
                 |  |  |  | |  | |    /  \     |  _  \  |  |  /  |          
                  \  \/   | |  | |   /    \    | | | |  |  | /  /          
                 / \  \   | |__| |  /  /\  \   | |_| |  |  |/  /          
                |  |  |   |  __  | /  /__\  \  |    /   |      \           
                |  |  |   | |  | | |   __   |  |    \   |  |\   \          
                \     /   | |  | | |  |  |  |  | |\  \  |  | \   \       
                 \___/    |_|  |_| |__|  |__|  |_| \__\ |__|  \__/        
                                                                              
                      - O R C A' S   B I G   F R I E N D -                    
                                      &                                       
                       - I N T E G R A L  F E E D E R -                       
                                                                              
 v1 FN, 2020, v2 2021                                                         
------------------------------------------------------------------------------


Reading SHARK input file rho.SHARKINP.tmp ... ok
----------------------
SHARK INTEGRAL PACKAGE
----------------------

Number of atoms                             ...     19
Number of basis functions                   ...    434
Number of shells                            ...    168
Maximum angular momentum                    ...      4
Integral batch strategy                     ... SHARK/LIBINT Hybrid
RI-J (if used) integral strategy            ... SPLIT-RIJ (Revised 2003 algorithm where possible)
Printlevel                                  ...      1
Contraction scheme used                     ... SEGMENTED contraction
Coulomb Range Separation                    ... NOT USED
Exchange Range Separation                   ... NOT USED
Finite Nucleus Model                        ... NOT USED
Auxiliary Coulomb fitting basis             ... AVAILABLE
   # of basis functions in Aux-J            ...   2299
   # of shells in Aux-J                     ...    645
   Maximum angular momentum in Aux-J        ...      6
Auxiliary J/K fitting basis                 ... AVAILABLE
   # of basis functions in Aux-JK           ...   2299
   # of shells in Aux-JK                    ...    645
   Maximum angular momentum in Aux-JK       ...      6
Auxiliary Correlation fitting basis         ... AVAILABLE
   # of basis functions in Aux-C            ...   2299
   # of shells in Aux-C                     ...    645
   Maximum angular momentum in Aux-C        ...      6
Auxiliary 'external' fitting basis          ... NOT available
Integral threshold                          ...     1.000000e-12
Primitive cut-off                           ...     1.000000e-14
Primitive pair pre-selection threshold      ...     1.000000e-14

Calculating pre-screening integrals         ... done (  0.1 sec) Dimension = 168
Organizing shell pair data                  ... done (  0.1 sec)
Shell pair information
Total number of shell pairs                 ...     14196
Shell pairs after pre-screening             ...     10583
Total number of primitive shell pairs       ...     32851
Primitive shell pairs kept                  ...     19392
          la=0 lb=0:   2568 shell pairs
          la=1 lb=0:   3047 shell pairs
          la=1 lb=1:    949 shell pairs
          la=2 lb=0:   1651 shell pairs
          la=2 lb=1:    994 shell pairs
          la=2 lb=2:    284 shell pairs
          la=3 lb=0:    484 shell pairs
          la=3 lb=1:    288 shell pairs
          la=3 lb=2:    154 shell pairs
          la=3 lb=3:     30 shell pairs
          la=4 lb=0:     64 shell pairs
          la=4 lb=1:     41 shell pairs
          la=4 lb=2:     20 shell pairs
          la=4 lb=3:      8 shell pairs
          la=4 lb=4:      1 shell pairs

Calculating one electron integrals          ... done (  0.0 sec)
Calculating RI/J V-Matrix + Cholesky decomp.... done (  0.3 sec)
Calculating RI/JK V-Matrix + Cholesky decomp... done (  0.4 sec)
Calculating RI/C V-Matrix + Cholesky decomp.... done (  0.3 sec)
Calculating Nuclear repulsion               ... done (  0.0 sec) ENN=    489.048432960279 Eh

SHARK setup successfully completed in   1.5 seconds

Maximum memory used throughout the entire GTOINT-calculation: 44.2 MB


           ************************************************************
           *        Program running with 10 parallel MPI-processes    *
           *              working on a common directory               *
           ************************************************************
------------------------------------------------------------------------------
                          ORCA RELATIVISTIC HAMILTONIAN
------------------------------------------------------------------------------

Relativistic Method            ... DKH
Order of DKH treatment         ...   2
Treatment of potential         ... V(e,N)
Eps parameter for DKH          ...   0.00000000010000
Nucleus model                  ... Point Nucleus
Speed of light used            ... 137.03598950000000


            ************************************************
            *        DOUGLAS-KROLL-HESS HAMILTONIAN        *
            *   Programmed by FN according to literature   *
            *        procedures. Special thanks to         *
            *       B.A. Hess, M. Reiher and A. Wolf       *
            *     University Erlangen-Nuernberg/Bonn       *
            ************************************************

Uncontracting the basis (first version)        ... done
Number of contracted basis functions           ...  434
Number of uncontracted basis functions         ...  579
Initializing the DKH file                      ... done
Calculating the relativistic integrals         ... done
Storing DKH matrices                           ... done
Code used for DKH trafo                        ... ORCA
Computing the DKH transformation               ... done
Storing the transformation variables           ... done
Transforming V and pVp to p**2 space           ... done
First transformation of V and pVp              ... done
Second transformation of Veff                  ... done
Adding kinetic energy                          ... done
Back transformation of Veff to r-space         ... done
Recovering DKH matrices                        ... done
Recontracting the H-matrix (first version)     ... done
Computing the DKH correction to the H-matrix   ... done
Reading the original H-matrix                  ... done
Adding DKH correction to the H-matrix          ... done
Storing the new modified H-matrix              ... done

Maximum memory used throughout the entire REL-calculation: 75.3 MB


           ************************************************************
           *        Program running with 10 parallel MPI-processes    *
           *              working on a common directory               *
           ************************************************************
-------------------------------------------------------------------------------
                                 ORCA SCF
-------------------------------------------------------------------------------

------------
SCF SETTINGS
------------
Hamiltonian:
 Ab initio Hamiltonian  Method          .... Hartree-Fock(GTOs)
 RI-approximation to the Coulomb term is turned on
   Number of AuxJ basis functions       .... 2299
   RIJ-COSX (HFX calculated with COS-X)).... on

Relativistic Settings:
 Scalar relativistic method             .... Douglas-Kroll-Hess
 Order of DKH procedure    Order        ....    2
 Mode of DKH-treatment                  .... V=V(e,N)
 Speed of light used       Velit        ....       137.035989
 Cutoff-constant           Eps          ....            1e-10 


General Settings:
 Integral files         IntName         .... rho
 Hartree-Fock type      HFTyp           .... CASSCF
 Total Charge           Charge          ....    2
 Multiplicity           Mult            ....    4
 Number of Electrons    NEL             ....   77
 Basis Dimension        Dim             ....  434
 Nuclear Repulsion      ENuc            ....    489.0484329603 Eh


Diagonalization of the overlap matrix:
Smallest eigenvalue                        ... 3.377e-04
Time for diagonalization                   ...    0.040 sec
Threshold for overlap eigenvalues          ... 1.000e-08
Number of eigenvalues below threshold      ... 0
Time for construction of square roots      ...    0.023 sec
Total time needed                          ...    0.064 sec

---------------------
INITIAL GUESS: MOREAD
---------------------
Guess MOs are being read from file: orb.gbw
Input Geometry matches current geometry (good)
Atom 0: N(Shells)= 24 and 18 - projection required
Input basis set needs projection
NBasis(read)= 418
NBasis(calc)= 434
Basis set overlap was calculated
Using GuessMode=CMatrix for the initial guess
Initial orthogonal set was formed
CASSCF - fitting 2 shells:
   closed-shell contains  35 orbitals (  0 ...  34)
   active space contains   5 orbitals ( 35 ...  39)
Virtual orbitals were projected
Gram-Schmidt orthogonalization of all MOs with pivot on actives
-----------------
ORBITAL ROTATIONS
-----------------
  Rotation  36(0)   33(0) cos(t)= 0.000000  sin(t)= 1.000000
  Orbital Energies were swapped
Initial density was built
Canonicalizing active space vectors CAS(7,5) {35-39} C(434,434) Cact Ract BOVL(418,434) COVL Diag BackTrafo Restore
Active space vectors have been canonicalized
                      ------------------
                      INITIAL GUESS DONE (   0.9 sec)
                      ------------------
--------------------
COSX GRID GENERATION
--------------------

GRIDX 1
-------
General Integration Accuracy     IntAcc      ... 3.816
Radial Grid Type                 RadialGrid  ... OptM3 with GC (2021)
Angular Grid (max. ang.)         AngularGrid ... 1 (Lebedev-50)
Angular grid pruning method      GridPruning ... 4 (adaptive)
Weight generation scheme         WeightScheme... Becke
Basis function cutoff            BFCut       ... 1.0000e-12
Integration weight cutoff        WCut        ... 1.0000e-14
Angular grids for H and He will be reduced by one unit
Partially contracted basis set               ... on
Rotationally invariant grid construction     ... off

Total number of grid points                  ...    10882
Total number of batches                      ...      180
Average number of points per batch           ...       60
Average number of grid points per atom       ...      573

GRIDX 2
-------
General Integration Accuracy     IntAcc      ... 4.020
Radial Grid Type                 RadialGrid  ... OptM3 with GC (2021)
Angular Grid (max. ang.)         AngularGrid ... 2 (Lebedev-110)
Angular grid pruning method      GridPruning ... 4 (adaptive)
Weight generation scheme         WeightScheme... Becke
Basis function cutoff            BFCut       ... 1.0000e-12
Integration weight cutoff        WCut        ... 1.0000e-14
Angular grids for H and He will be reduced by one unit
Partially contracted basis set               ... on
Rotationally invariant grid construction     ... off

Total number of grid points                  ...    22788
Total number of batches                      ...      366
Average number of points per batch           ...       62
Average number of grid points per atom       ...     1199

GRIDX 3
-------
General Integration Accuracy     IntAcc      ... 4.338
Radial Grid Type                 RadialGrid  ... OptM3 with GC (2021)
Angular Grid (max. ang.)         AngularGrid ... 3 (Lebedev-194)
Angular grid pruning method      GridPruning ... 4 (adaptive)
Weight generation scheme         WeightScheme... Becke
Basis function cutoff            BFCut       ... 1.0000e-12
Integration weight cutoff        WCut        ... 1.0000e-14
Angular grids for H and He will be reduced by one unit
Partially contracted basis set               ... on
Rotationally invariant grid construction     ... off

Total number of grid points                  ...    49997
Total number of batches                      ...      793
Average number of points per batch           ...       63
Average number of grid points per atom       ...     2631

Time for X-Grid setup             =    0.373 sec



 ... the calculation is a CASSCF calculation -I'm leaving here GOOD LUCK!!!



           ************************************************************
           *        Program running with 10 parallel MPI-processes    *
           *              working on a common directory               *
           ************************************************************
-------------------------------------------------------------------------------
                              ORCA-CASSCF
-------------------------------------------------------------------------------

Setting up the integral package       ... done
Setting up the integral package (RI)  ... done
Building the CAS space                ... done (10 configurations for Mult=4)
Building the CAS space                ... done (30 configurations for Mult=2)

SYSTEM-SPECIFIC SETTINGS:
Number of active electrons          ...    7
Number of active orbitals           ...    5
Total number of electrons           ...   77
Total number of orbitals            ...  434
Total number aux. functions         ... 2299

Determined orbital ranges:
   Internal       0 -   34 (  35 orbitals)
   Active        35 -   39 (   5 orbitals)
   External      40 -  433 ( 394 orbitals)
Number of rotation parameters      ...  15935

CI-STEP:
CI strategy                         ... General CI
Number of multiplicity blocks       ...    2
BLOCK  1 WEIGHT=   0.5000
  Multiplicity                      ...    4
  #(Configurations)                 ...   10
  #(CSFs)                           ...   10
  #(Roots)                          ...   10
    ROOT=0 WEIGHT=    0.050000
    ROOT=1 WEIGHT=    0.050000
    ROOT=2 WEIGHT=    0.050000
    ROOT=3 WEIGHT=    0.050000
    ROOT=4 WEIGHT=    0.050000
    ROOT=5 WEIGHT=    0.050000
    ROOT=6 WEIGHT=    0.050000
    ROOT=7 WEIGHT=    0.050000
    ROOT=8 WEIGHT=    0.050000
    ROOT=9 WEIGHT=    0.050000

BLOCK  2 WEIGHT=   0.5000
  Multiplicity                      ...    2
  #(Configurations)                 ...   30
  #(CSFs)                           ...   40
  #(Roots)                          ...   40
    ROOT=0 WEIGHT=    0.012500
    ROOT=1 WEIGHT=    0.012500
    ROOT=2 WEIGHT=    0.012500
    ROOT=3 WEIGHT=    0.012500
    ROOT=4 WEIGHT=    0.012500
    ROOT=5 WEIGHT=    0.012500
    ROOT=6 WEIGHT=    0.012500
    ROOT=7 WEIGHT=    0.012500
    ROOT=8 WEIGHT=    0.012500
    ROOT=9 WEIGHT=    0.012500
    ROOT=10 WEIGHT=    0.012500
    ROOT=11 WEIGHT=    0.012500
    ROOT=12 WEIGHT=    0.012500
    ROOT=13 WEIGHT=    0.012500
    ROOT=14 WEIGHT=    0.012500
    ROOT=15 WEIGHT=    0.012500
    ROOT=16 WEIGHT=    0.012500
    ROOT=17 WEIGHT=    0.012500
    ROOT=18 WEIGHT=    0.012500
    ROOT=19 WEIGHT=    0.012500
    ROOT=20 WEIGHT=    0.012500
    ROOT=21 WEIGHT=    0.012500
    ROOT=22 WEIGHT=    0.012500
    ROOT=23 WEIGHT=    0.012500
    ROOT=24 WEIGHT=    0.012500
    ROOT=25 WEIGHT=    0.012500
    ROOT=26 WEIGHT=    0.012500
    ROOT=27 WEIGHT=    0.012500
    ROOT=28 WEIGHT=    0.012500
    ROOT=29 WEIGHT=    0.012500
    ROOT=30 WEIGHT=    0.012500
    ROOT=31 WEIGHT=    0.012500
    ROOT=32 WEIGHT=    0.012500
    ROOT=33 WEIGHT=    0.012500
    ROOT=34 WEIGHT=    0.012500
    ROOT=35 WEIGHT=    0.012500
    ROOT=36 WEIGHT=    0.012500
    ROOT=37 WEIGHT=    0.012500
    ROOT=38 WEIGHT=    0.012500
    ROOT=39 WEIGHT=    0.012500

  PrintLevel                        ...    1
  N(GuessMat)                       ...       512
  MaxDim(CI)                        ...        10
  MaxIter(CI)                       ...        64
  Energy Tolerance CI               ...  1.00e-09
  Residual Tolerance CI             ...  1.00e-09
  Shift(CI)                         ...  1.00e-04

INTEGRAL-TRANSFORMATION-STEP:
  Algorithm                         ... RI-MO

ORBITAL-IMPROVEMENT-STEP:
  Algorithm                         ... SuperCI
  Default Parametrization           ... CAYLEY
  Act-Act rotations                 ... depends on algorithm used
  FreezeIE                          ... 95.00% of ||g||
  Until reaching FreezeIE rotations with active orbitals are damped. 

  Approx. Fock at                   ... 0.000000e+00 density convergence
  Level shift                       ... energy gap dependent. Minimum=1.000
  Switch step at gradient           ...  3.00e-02 
  Switch step at iteration          ...        50   
  Switch step to                    ... DIIS    

SCF-SETTINGS:
  Incremental                       ... off
  RIJCOSX approximation             ... on
  UseFinalGrid                      ... on
  RI-JK approximation               ... off
  AO integral handling              ... DIRECT
  Integral Neglect Thresh           ...  1.00e-12
  Primitive cutoff TCut             ...  1.00e-14
  Energy convergence tolerance      ...  1.00e-08
  Orbital gradient convergence      ...  1.00e-05
  Max. number of iterations         ...       100  


PROPERTIES-SETTINGS:
  Spin orbit coupling               ... true
  GTensor                           ... true

FINAL ORBITALS:
  Active   Orbitals                 ... d-orbitals 
  Internal Orbitals                 ... canonical 
  External Orbitals                 ... canonical 

------------------
CAS-SCF ITERATIONS
------------------


MACRO-ITERATION   1: 
   --- Canonicalize Internal Space
   --- Canonicalize External Space
   --- Inactive Energy E0 = -1674.83359806 Eh
CI-ITERATION   0: 
 -1698.611296961   0.000000000000 (    0.00)
 -1698.609111066   0.000000000000
 -1698.598673040   0.000000000000
 -1698.582137811   0.000000000000
 -1698.575080680   0.000000000000
 -1698.555456677   0.000000000000
 -1698.553688581   0.000000000000
 -1698.518097023   0.000000000000
 -1698.508116162   0.000000000000
 -1698.495937863   0.000000000000
   CI-PROBLEM SOLVED
   DENSITIES MADE
CI-ITERATION   0: 
 -1698.554380454   0.000000000000 (    0.00)
 -1698.553453733   0.000000000000
 -1698.540590568   0.000000000000
 -1698.530939192   0.000000000000
 -1698.523961656   0.000000000000
 -1698.522555729   0.000000000000
 -1698.522434301   0.000000000000
 -1698.517403329   0.000000000000
 -1698.513727510   0.000000000000
 -1698.513285699   0.000000000000
 -1698.505394358   0.000000000000
 -1698.501149334   0.000000000000
 -1698.497722750   0.000000000000
 -1698.493189958   0.000000000000
 -1698.490700768   0.000000000000
 -1698.483627597   0.000000000000
 -1698.479591128   0.000000000000
 -1698.479014674   0.000000000000
 -1698.476180242   0.000000000000
 -1698.472191194   0.000000000000
 -1698.468519887   0.000000000000
 -1698.467448014   0.000000000000
 -1698.466380311   0.000000000000
 -1698.460858813   0.000000000000
 -1698.459469036   0.000000000000
 -1698.458546839   0.000000000000
 -1698.443604552   0.000000000000
 -1698.434532472   0.000000000000
 -1698.424711975   0.000000000000
 -1698.419532771   0.000000000000
 -1698.413230107   0.000000000000
 -1698.410597717   0.000000000000
 -1698.410489336   0.000000000000
 -1698.396597190   0.000000000000
 -1698.395310271   0.000000000000
 -1698.326433941   0.000000000000
 -1698.319173301   0.000000000000
 -1698.315123023   0.000000000000
 -1698.301245168   0.000000000000
 -1698.295914699   0.000000000000
   CI-PROBLEM SOLVED
   DENSITIES MADE

                 <<<<<<<<<<<<<<<<<<INITIAL CI STATE CHECK>>>>>>>>>>>>>>>>>>

BLOCK  1 MULT= 4 NROOTS=10 
ROOT   0:  E=   -1698.6112969615 Eh
      0.49547 [     1]: 11212
      0.24244 [     0]: 11122
      0.18886 [     2]: 11221
      0.02348 [     3]: 12112
      0.01874 [     9]: 22111
      0.01644 [     5]: 12211
      0.00943 [     7]: 21121
      0.00455 [     8]: 21211
ROOT   1:  E=   -1698.6091110658 Eh  0.059 eV    479.7 cm**-1
      0.50027 [     5]: 12211
      0.30853 [     4]: 12121
      0.07944 [     2]: 11221
      0.06531 [     6]: 21112
      0.02892 [     7]: 21121
      0.01372 [     8]: 21211
ROOT   2:  E=   -1698.5986730405 Eh  0.344 eV   2770.6 cm**-1
      0.55060 [     8]: 21211
      0.25997 [     7]: 21121
      0.11656 [     3]: 12112
      0.03364 [     9]: 22111
      0.01356 [     4]: 12121
      0.01188 [     5]: 12211
      0.00929 [     0]: 11122
      0.00387 [     1]: 11212
ROOT   3:  E=   -1698.5821378106 Eh  0.793 eV   6399.7 cm**-1
      0.72569 [     9]: 22111
      0.13952 [     2]: 11221
      0.10948 [     7]: 21121
      0.01973 [     5]: 12211
ROOT   4:  E=   -1698.5750806803 Eh  0.985 eV   7948.6 cm**-1
      0.92972 [     6]: 21112
      0.03147 [     5]: 12211
      0.01968 [     4]: 12121
      0.00547 [     7]: 21121
      0.00525 [     2]: 11221
      0.00427 [     8]: 21211
      0.00406 [     9]: 22111
ROOT   5:  E=   -1698.5554566772 Eh  1.519 eV  12255.5 cm**-1
      0.63345 [     4]: 12121
      0.28265 [     5]: 12211
      0.05368 [     2]: 11221
      0.01820 [     8]: 21211
      0.00587 [     9]: 22111
      0.00508 [     7]: 21121
ROOT   6:  E=   -1698.5536885813 Eh  1.568 eV  12643.6 cm**-1
      0.55630 [     0]: 11122
      0.34669 [     1]: 11212
      0.09633 [     3]: 12112
ROOT   7:  E=   -1698.5180970228 Eh  2.536 eV  20455.0 cm**-1
      0.69702 [     3]: 12112
      0.15185 [     0]: 11122
      0.07883 [     8]: 21211
      0.04515 [     7]: 21121
      0.02091 [     2]: 11221
      0.00307 [     1]: 11212
      0.00253 [     4]: 12121
ROOT   8:  E=   -1698.5081161620 Eh  2.808 eV  22645.6 cm**-1
      0.50284 [     2]: 11221
      0.14736 [     1]: 11212
      0.12368 [     9]: 22111
      0.11128 [     5]: 12211
      0.06594 [     3]: 12112
      0.03901 [     0]: 11122
      0.00840 [     7]: 21121
ROOT   9:  E=   -1698.4959378626 Eh  3.139 eV  25318.4 cm**-1
      0.52790 [     7]: 21121
      0.32807 [     8]: 21211
      0.08628 [     9]: 22111
      0.02575 [     5]: 12211
      0.01935 [     4]: 12121
      0.00884 [     2]: 11221
      0.00328 [     6]: 21112

BLOCK  2 MULT= 2 NROOTS=40 
ROOT   0:  E=   -1698.5543804545 Eh
      0.37442 [    26]: 22111
      0.22250 [    28]: 22201
      0.14224 [    21]: 21211
      0.07917 [    24]: 22021
      0.06704 [    19]: 21121
      0.04024 [    29]: 22210
      0.02518 [    27]: 22120
      0.01513 [     3]: 02221
      0.00714 [     5]: 11122
      0.00710 [    22]: 21220
      0.00349 [     2]: 02212
      0.00262 [    12]: 12211
ROOT   1:  E=   -1698.5534537334 Eh  0.025 eV    203.4 cm**-1
      0.36273 [    18]: 21112
      0.27780 [    20]: 21202
      0.07677 [    21]: 21211
      0.06782 [    17]: 21022
      0.04996 [    15]: 20212
      0.03784 [    19]: 21121
      0.02664 [    14]: 20122
      0.02399 [    25]: 22102
      0.01866 [     0]: 01222
      0.01046 [    23]: 22012
      0.01025 [    22]: 21220
      0.00758 [    10]: 12121
      0.00757 [    26]: 22111
      0.00450 [    28]: 22201
      0.00401 [    16]: 20221
      0.00341 [     9]: 12112
      0.00316 [    12]: 12211
      0.00287 [     2]: 02212
ROOT   2:  E=   -1698.5405905681 Eh  0.375 eV   3026.5 cm**-1
      0.39481 [    12]: 12211
      0.24735 [    10]: 12121
      0.07291 [     7]: 11221
      0.07070 [     9]: 12112
      0.06973 [     6]: 11212
      0.04343 [    11]: 12202
      0.02510 [     8]: 12022
      0.01586 [     4]: 10222
      0.01316 [     5]: 11122
      0.01178 [    13]: 12220
      0.00590 [    17]: 21022
      0.00429 [    18]: 21112
      0.00424 [    20]: 21202
      0.00379 [    19]: 21121
      0.00351 [     3]: 02221
      0.00290 [    26]: 22111
ROOT   3:  E=   -1698.5309391920 Eh  0.638 eV   5144.8 cm**-1
      0.41165 [     6]: 11212
      0.21655 [     5]: 11122
      0.09725 [     7]: 11221
      0.08325 [    26]: 22111
      0.03347 [     4]: 10222
      0.03290 [     9]: 12112
      0.02608 [    11]: 12202
      0.02062 [    19]: 21121
      0.02027 [    25]: 22102
      0.01716 [    12]: 12211
      0.01343 [    18]: 21112
      0.01256 [    23]: 22012
      0.00533 [    17]: 21022
      0.00259 [    27]: 22120
ROOT   4:  E=   -1698.5239616556 Eh  0.828 eV   6676.2 cm**-1
      0.19108 [    13]: 12220
      0.18616 [    17]: 21022
      0.18314 [    20]: 21202
      0.12612 [    12]: 12211
      0.08097 [    10]: 12121
      0.06358 [    18]: 21112
      0.02785 [    15]: 20212
      0.02658 [     7]: 11221
      0.02593 [    23]: 22012
      0.02503 [    11]: 12202
      0.01479 [     9]: 12112
      0.01202 [     8]: 12022
      0.00642 [     6]: 11212
      0.00496 [    29]: 22210
      0.00492 [    19]: 21121
      0.00470 [     5]: 11122
      0.00378 [     3]: 02221
      0.00309 [    27]: 22120
ROOT   5:  E=   -1698.5225557285 Eh  0.866 eV   6984.7 cm**-1
      0.22471 [    24]: 22021
      0.14309 [    28]: 22201
      0.11495 [     6]: 11212
      0.11138 [     7]: 11221
      0.08331 [     5]: 11122
      0.07240 [    26]: 22111
      0.07121 [    21]: 21211
      0.04869 [     4]: 10222
      0.03425 [    11]: 12202
      0.01981 [     9]: 12112
      0.01824 [    12]: 12211
      0.01090 [    19]: 21121
      0.00802 [    14]: 20122
      0.00769 [    16]: 20221
      0.00742 [    15]: 20212
      0.00639 [    18]: 21112
ROOT   6:  E=   -1698.5224343011 Eh  0.869 eV   7011.4 cm**-1
      0.24545 [     3]: 02221
      0.16268 [     2]: 02212
      0.11531 [    29]: 22210
      0.10486 [     1]: 02122
      0.08061 [    15]: 20212
      0.07454 [    27]: 22120
      0.03252 [     0]: 01222
      0.03075 [     5]: 11122
      0.02389 [    18]: 21112
      0.02318 [    14]: 20122
      0.02163 [    22]: 21220
      0.01849 [    16]: 20221
      0.01508 [     6]: 11212
      0.01039 [    23]: 22012
      0.01013 [    28]: 22201
      0.00646 [     9]: 12112
      0.00422 [    13]: 12220
      0.00413 [    10]: 12121
      0.00404 [    12]: 12211
      0.00360 [    26]: 22111
ROOT   7:  E=   -1698.5174033292 Eh  1.006 eV   8115.5 cm**-1
      0.32719 [    12]: 12211
      0.19991 [    10]: 12121
      0.06965 [     9]: 12112
      0.05269 [     7]: 11221
      0.04655 [    18]: 21112
      0.04391 [    14]: 20122
      0.04278 [    11]: 12202
      0.04101 [    20]: 21202
      0.03218 [    17]: 21022
      0.02990 [     6]: 11212
      0.02344 [    25]: 22102
      0.02149 [    19]: 21121
      0.01579 [     8]: 12022
      0.01546 [     5]: 11122
      0.01483 [    21]: 21211
      0.00539 [    26]: 22111
      0.00538 [     3]: 02221
      0.00448 [    23]: 22012
      0.00309 [    13]: 12220
ROOT   8:  E=   -1698.5137275096 Eh  1.106 eV   8922.3 cm**-1
      0.43651 [    21]: 21211
      0.23062 [    19]: 21121
      0.06366 [    10]: 12121
      0.03795 [    26]: 22111
      0.03616 [    28]: 22201
      0.03542 [    22]: 21220
      0.03269 [     0]: 01222
      0.03132 [    16]: 20221
      0.02660 [    18]: 21112
      0.02625 [    12]: 12211
      0.00833 [     7]: 11221
      0.00807 [    20]: 21202
      0.00575 [     2]: 02212
      0.00473 [     8]: 12022
      0.00382 [    11]: 12202
      0.00369 [    29]: 22210
ROOT   9:  E=   -1698.5132856986 Eh  1.118 eV   9019.3 cm**-1
      0.23795 [    29]: 22210
      0.20896 [    15]: 20212
      0.14763 [    27]: 22120
      0.09204 [    14]: 20122
      0.05175 [     3]: 02221
      0.03991 [    22]: 21220
      0.03608 [    20]: 21202
      0.03385 [    26]: 22111
      0.03260 [    18]: 21112
      0.02814 [     5]: 11122
      0.02372 [    16]: 20221
      0.01628 [    21]: 21211
      0.01213 [     6]: 11212
      0.00673 [    19]: 21121
      0.00593 [    25]: 22102
      0.00572 [    12]: 12211
      0.00409 [    10]: 12121
      0.00378 [    28]: 22201
      0.00315 [     9]: 12112
      0.00293 [     4]: 10222
ROOT  10:  E=   -1698.5053943582 Eh  1.333 eV  10751.2 cm**-1
      0.17201 [     6]: 11212
      0.12186 [    25]: 22102
      0.10645 [     7]: 11221
      0.10474 [     5]: 11122
      0.08554 [    24]: 22021
      0.08500 [    23]: 22012
      0.05739 [    28]: 22201
      0.05727 [    18]: 21112
      0.04087 [    27]: 22120
      0.03757 [    26]: 22111
      0.02622 [    21]: 21211
      0.02288 [     4]: 10222
      0.01985 [    11]: 12202
      0.01843 [    29]: 22210
      0.01089 [    12]: 12211
      0.01082 [     9]: 12112
      0.00984 [    17]: 21022
      0.00375 [    22]: 21220
      0.00262 [    16]: 20221
ROOT  11:  E=   -1698.5011493343 Eh  1.448 eV  11682.9 cm**-1
      0.18165 [     8]: 12022
      0.13838 [    11]: 12202
      0.11140 [    10]: 12121
      0.11121 [    19]: 21121
      0.09839 [    21]: 21211
      0.08112 [    28]: 22201
      0.05507 [    16]: 20221
      0.04990 [    12]: 12211
      0.04145 [     9]: 12112
      0.04072 [     6]: 11212
      0.03013 [    22]: 21220
      0.01263 [    26]: 22111
      0.01071 [     5]: 11122
      0.00960 [     7]: 11221
      0.00764 [     0]: 01222
      0.00533 [    29]: 22210
      0.00308 [    24]: 22021
      0.00288 [     4]: 10222
      0.00286 [    17]: 21022
ROOT  12:  E=   -1698.4977227498 Eh  1.542 eV  12434.9 cm**-1
      0.28525 [    18]: 21112
      0.24539 [    13]: 12220
      0.08314 [    17]: 21022
      0.08117 [    20]: 21202
      0.04828 [    14]: 20122
      0.04808 [    25]: 22102
      0.03769 [     9]: 12112
      0.03723 [    11]: 12202
      0.03218 [    12]: 12211
      0.02081 [    10]: 12121
      0.02015 [     4]: 10222
      0.01237 [    15]: 20212
      0.01201 [     8]: 12022
      0.01071 [    23]: 22012
      0.00729 [    19]: 21121
      0.00719 [     7]: 11221
      0.00400 [    21]: 21211
      0.00342 [     5]: 11122
ROOT  13:  E=   -1698.4931899584 Eh  1.665 eV  13429.8 cm**-1
      0.24440 [    26]: 22111
      0.14446 [     7]: 11221
      0.13235 [    25]: 22102
      0.10374 [    18]: 21112
      0.09207 [    23]: 22012
      0.04599 [    19]: 21121
      0.03590 [    12]: 12211
      0.02944 [     6]: 11212
      0.02734 [    27]: 22120
      0.02220 [    24]: 22021
      0.01994 [    15]: 20212
      0.01714 [    17]: 21022
      0.01567 [    14]: 20122
      0.01514 [    28]: 22201
      0.01449 [    29]: 22210
      0.01083 [     5]: 11122
      0.00686 [    21]: 21211
      0.00598 [     9]: 12112
      0.00418 [    20]: 21202
      0.00368 [    10]: 12121
ROOT  14:  E=   -1698.4907007682 Eh  1.733 eV  13976.1 cm**-1
      0.23695 [    10]: 12121
      0.18735 [     9]: 12112
      0.13352 [    21]: 21211
      0.12357 [     0]: 01222
      0.11137 [    12]: 12211
      0.06047 [    19]: 21121
      0.03608 [     5]: 11122
      0.02177 [     2]: 02212
      0.01839 [     7]: 11221
      0.01687 [    26]: 22111
      0.01474 [    18]: 21112
      0.01165 [    20]: 21202
      0.00645 [    25]: 22102
      0.00546 [    28]: 22201
      0.00465 [    16]: 20221
      0.00360 [    23]: 22012
ROOT  15:  E=   -1698.4836275974 Eh  1.925 eV  15528.5 cm**-1
      0.39954 [     5]: 11122
      0.12146 [     6]: 11212
      0.11915 [     3]: 02221
      0.07884 [     4]: 10222
      0.05055 [    15]: 20212
      0.04391 [     9]: 12112
      0.04362 [    11]: 12202
      0.03080 [    18]: 21112
      0.02346 [    23]: 22012
      0.01756 [    29]: 22210
      0.01651 [    24]: 22021
      0.01091 [    16]: 20221
      0.01029 [    27]: 22120
      0.00786 [    14]: 20122
      0.00699 [    28]: 22201
      0.00547 [    10]: 12121
      0.00304 [    19]: 21121
ROOT  16:  E=   -1698.4795911283 Eh  2.035 eV  16414.4 cm**-1
      0.28021 [     0]: 01222
      0.23182 [    10]: 12121
      0.13140 [     9]: 12112
      0.10700 [    12]: 12211
      0.03628 [     2]: 02212
      0.03132 [    19]: 21121
      0.02624 [    21]: 21211
      0.02548 [     7]: 11221
      0.02512 [     5]: 11122
      0.02070 [    22]: 21220
      0.01929 [    28]: 22201
      0.01895 [    18]: 21112
      0.01097 [    16]: 20221
      0.00917 [    20]: 21202
      0.00629 [    17]: 21022
      0.00386 [    26]: 22111
      0.00361 [    15]: 20212
      0.00320 [    25]: 22102
ROOT  17:  E=   -1698.4790146744 Eh  2.051 eV  16540.9 cm**-1
      0.15782 [     4]: 10222
      0.11926 [    18]: 21112
      0.11566 [    14]: 20122
      0.10592 [     6]: 11212
      0.09378 [    20]: 21202
      0.09166 [    13]: 12220
      0.07572 [    25]: 22102
      0.07262 [    17]: 21022
      0.03313 [     3]: 02221
      0.02424 [     9]: 12112
      0.02282 [    12]: 12211
      0.01916 [    10]: 12121
      0.01102 [     8]: 12022
      0.01060 [    26]: 22111
      0.00836 [     5]: 11122
      0.00783 [    19]: 21121
      0.00704 [    21]: 21211
      0.00684 [    11]: 12202
      0.00430 [    23]: 22012
      0.00323 [    28]: 22201
      0.00310 [     7]: 11221
ROOT  18:  E=   -1698.4761802419 Eh  2.128 eV  17163.0 cm**-1
      0.31342 [     3]: 02221
      0.16604 [    15]: 20212
      0.10093 [     5]: 11122
      0.08713 [    18]: 21112
      0.06420 [     6]: 11212
      0.06185 [    29]: 22210
      0.03836 [    27]: 22120
      0.03109 [    14]: 20122
      0.02467 [     9]: 12112
      0.02087 [    23]: 22012
      0.01984 [    26]: 22111
      0.01308 [    20]: 21202
      0.01129 [    11]: 12202
      0.01073 [    22]: 21220
      0.01067 [    19]: 21121
      0.00929 [    28]: 22201
      0.00413 [    13]: 12220
      0.00269 [    12]: 12211
ROOT  19:  E=   -1698.4721911944 Eh  2.236 eV  18038.5 cm**-1
      0.32685 [    26]: 22111
      0.09668 [    24]: 22021
      0.06247 [     6]: 11212
      0.06002 [    19]: 21121
      0.05910 [    14]: 20122
      0.05737 [    28]: 22201
      0.04861 [    18]: 21112
      0.04607 [     5]: 11122
      0.03964 [    15]: 20212
      0.03673 [    21]: 21211
      0.03277 [    27]: 22120
      0.02848 [     7]: 11221
      0.02042 [     4]: 10222
      0.02029 [    11]: 12202
      0.01553 [    29]: 22210
      0.00989 [    20]: 21202
      0.00761 [     9]: 12112
      0.00617 [     1]: 02122
      0.00548 [    23]: 22012
      0.00524 [    16]: 20221
      0.00395 [     2]: 02212
      0.00341 [    12]: 12211
      0.00309 [    25]: 22102
      0.00251 [    17]: 21022
ROOT  20:  E=   -1698.4685198871 Eh  2.336 eV  18844.2 cm**-1
      0.47808 [     5]: 11122
      0.25722 [     6]: 11212
      0.07436 [     9]: 12112
      0.03483 [    29]: 22210
      0.02015 [     4]: 10222
      0.01990 [    27]: 22120
      0.01756 [    15]: 20212
      0.01431 [     2]: 02212
      0.01401 [    11]: 12202
      0.01273 [    16]: 20221
      0.01096 [    14]: 20122
      0.01034 [     1]: 02122
      0.00505 [    22]: 21220
      0.00456 [    20]: 21202
      0.00405 [    23]: 22012
      0.00278 [    28]: 22201
      0.00271 [    10]: 12121
      0.00269 [    18]: 21112
      0.00266 [     3]: 02221
      0.00256 [    25]: 22102
ROOT  21:  E=   -1698.4674480141 Eh  2.366 eV  19079.5 cm**-1
      0.30605 [    10]: 12121
      0.18226 [     9]: 12112
      0.13579 [     7]: 11221
      0.10155 [     1]: 02122
      0.08000 [    12]: 12211
      0.04002 [     5]: 11122
      0.03976 [     2]: 02212
      0.02317 [     0]: 01222
      0.01378 [    22]: 21220
      0.01359 [    18]: 21112
      0.01114 [    29]: 22210
      0.00952 [    26]: 22111
      0.00828 [     6]: 11212
      0.00646 [    27]: 22120
      0.00642 [    11]: 12202
      0.00537 [    25]: 22102
      0.00422 [     8]: 12022
      0.00407 [    21]: 21211
      0.00319 [    15]: 20212
ROOT  22:  E=   -1698.4663803110 Eh  2.395 eV  19313.8 cm**-1
      0.33005 [     1]: 02122
      0.14886 [     2]: 02212
      0.13547 [    12]: 12211
      0.13070 [    10]: 12121
      0.04560 [     9]: 12112
      0.04205 [     7]: 11221
      0.02702 [     0]: 01222
      0.02582 [     6]: 11212
      0.02114 [    27]: 22120
      0.01751 [    22]: 21220
      0.01308 [    14]: 20122
      0.01283 [    26]: 22111
      0.01065 [    25]: 22102
      0.01058 [     8]: 12022
      0.00424 [    23]: 22012
      0.00387 [    20]: 21202
      0.00344 [    29]: 22210
      0.00295 [    17]: 21022
      0.00286 [    15]: 20212
      0.00272 [     4]: 10222
      0.00266 [    19]: 21121
      0.00264 [     5]: 11122
ROOT  23:  E=   -1698.4608588132 Eh  2.545 eV  20525.6 cm**-1
      0.15281 [     7]: 11221
      0.09832 [     8]: 12022
      0.07850 [     9]: 12112
      0.07775 [    18]: 21112
      0.07758 [    14]: 20122
      0.06231 [    17]: 21022
      0.05748 [     0]: 01222
      0.05138 [    11]: 12202
      0.04932 [     6]: 11212
      0.04408 [    26]: 22111
      0.03853 [    27]: 22120
      0.03793 [    15]: 20212
      0.02679 [    10]: 12121
      0.02372 [    22]: 21220
      0.02089 [    19]: 21121
      0.01942 [    28]: 22201
      0.01781 [     2]: 02212
      0.01471 [    21]: 21211
      0.00947 [    16]: 20221
      0.00882 [     5]: 11122
      0.00770 [    29]: 22210
      0.00580 [     4]: 10222
      0.00524 [    25]: 22102
      0.00500 [    23]: 22012
      0.00305 [    24]: 22021
      0.00299 [     1]: 02122
ROOT  24:  E=   -1698.4594690364 Eh  2.583 eV  20830.6 cm**-1
      0.25987 [    19]: 21121
      0.17015 [    13]: 12220
      0.14511 [    21]: 21211
      0.13580 [     4]: 10222
      0.07980 [     6]: 11212
      0.05533 [    18]: 21112
      0.04235 [    26]: 22111
      0.03627 [    12]: 12211
      0.01871 [    10]: 12121
      0.01256 [    25]: 22102
      0.01041 [    14]: 20122
      0.00887 [    28]: 22201
      0.00681 [    16]: 20221
      0.00603 [     9]: 12112
ROOT  25:  E=   -1698.4585468391 Eh  2.608 eV  21033.0 cm**-1
      0.16771 [     7]: 11221
      0.11357 [    18]: 21112
      0.09948 [    27]: 22120
      0.08127 [    12]: 12211
      0.08004 [    11]: 12202
      0.06015 [    29]: 22210
      0.05212 [     8]: 12022
      0.04576 [    26]: 22111
      0.04544 [    14]: 20122
      0.03712 [    15]: 20212
      0.02924 [     9]: 12112
      0.02827 [    20]: 21202
      0.02474 [     0]: 01222
      0.02422 [    10]: 12121
      0.02216 [    17]: 21022
      0.02155 [     5]: 11122
      0.01376 [    23]: 22012
      0.01275 [    21]: 21211
      0.01257 [    19]: 21121
      0.01157 [     2]: 02212
      0.00484 [    16]: 20221
      0.00359 [     1]: 02122
      0.00301 [     6]: 11212
ROOT  26:  E=   -1698.4436045515 Eh  3.014 eV  24312.5 cm**-1
      0.34270 [    19]: 21121
      0.15640 [     8]: 12022
      0.13137 [    21]: 21211
      0.12407 [     9]: 12112
      0.04290 [    26]: 22111
      0.03824 [    16]: 20221
      0.03544 [    28]: 22201
      0.03352 [    11]: 12202
      0.02927 [     6]: 11212
      0.01445 [     5]: 11122
      0.01085 [    12]: 12211
      0.00859 [    13]: 12220
      0.00746 [     4]: 10222
      0.00705 [    10]: 12121
      0.00325 [    17]: 21022
      0.00301 [    23]: 22012
      0.00257 [     7]: 11221
ROOT  27:  E=   -1698.4345324721 Eh  3.261 eV  26303.6 cm**-1
      0.25986 [    23]: 22012
      0.13908 [    26]: 22111
      0.12944 [    24]: 22021
      0.11727 [    25]: 22102
      0.08572 [     2]: 02212
      0.05172 [     1]: 02122
      0.03827 [     3]: 02221
      0.03500 [    17]: 21022
      0.03493 [    18]: 21112
      0.02955 [    28]: 22201
      0.01380 [     9]: 12112
      0.01323 [     0]: 01222
      0.01156 [     5]: 11122
      0.00909 [    19]: 21121
      0.00825 [     6]: 11212
      0.00819 [    21]: 21211
      0.00393 [     8]: 12022
      0.00327 [    14]: 20122
ROOT  28:  E=   -1698.4247119753 Eh  3.528 eV  28458.9 cm**-1
      0.18790 [     0]: 01222
      0.16267 [     9]: 12112
      0.11028 [    21]: 21211
      0.10530 [    10]: 12121
      0.08196 [    19]: 21121
      0.05383 [     8]: 12022
      0.04278 [    28]: 22201
      0.04249 [    11]: 12202
      0.04052 [     7]: 11221
      0.03137 [    16]: 20221
      0.02995 [     2]: 02212
      0.02911 [    12]: 12211
      0.01833 [     5]: 11122
      0.01612 [    17]: 21022
      0.01560 [    26]: 22111
      0.01409 [     6]: 11212
      0.01120 [    20]: 21202
ROOT  29:  E=   -1698.4195327707 Eh  3.669 eV  29595.6 cm**-1
      0.43014 [     7]: 11221
      0.10640 [    12]: 12211
      0.08012 [    25]: 22102
      0.06567 [     6]: 11212
      0.05177 [    27]: 22120
      0.04582 [    23]: 22012
      0.03752 [     1]: 02122
      0.03369 [     5]: 11122
      0.02621 [    29]: 22210
      0.02522 [     2]: 02212
      0.01599 [    14]: 20122
      0.01363 [    24]: 22021
      0.01260 [    26]: 22111
      0.01199 [    18]: 21112
      0.01044 [    21]: 21211
      0.00622 [    17]: 21022
      0.00539 [    28]: 22201
      0.00526 [    19]: 21121
      0.00478 [    15]: 20212
      0.00363 [    10]: 12121
ROOT  30:  E=   -1698.4132301071 Eh  3.841 eV  30978.9 cm**-1
      0.29594 [     9]: 12112
      0.16134 [     4]: 10222
      0.15561 [    19]: 21121
      0.08953 [    21]: 21211
      0.05076 [     5]: 11122
      0.04735 [    18]: 21112
      0.03294 [    26]: 22111
      0.03281 [     6]: 11212
      0.03106 [     8]: 12022
      0.02579 [    25]: 22102
      0.02050 [    11]: 12202
      0.01665 [    14]: 20122
      0.00795 [    12]: 12211
      0.00781 [    13]: 12220
      0.00555 [    16]: 20221
      0.00553 [    28]: 22201
      0.00539 [    10]: 12121
ROOT  31:  E=   -1698.4105977173 Eh  3.913 eV  31556.7 cm**-1
      0.21443 [     7]: 11221
      0.17144 [    27]: 22120
      0.11229 [    14]: 20122
      0.07836 [    29]: 22210
      0.07238 [     6]: 11212
      0.06937 [    15]: 20212
      0.05980 [     5]: 11122
      0.03679 [    26]: 22111
      0.03206 [    12]: 12211
      0.02805 [    11]: 12202
      0.02393 [     4]: 10222
      0.02132 [    18]: 21112
      0.01797 [    25]: 22102
      0.01438 [    19]: 21121
      0.01296 [    22]: 21220
      0.00795 [    20]: 21202
      0.00623 [     9]: 12112
      0.00548 [     1]: 02122
      0.00499 [    23]: 22012
      0.00280 [     2]: 02212
ROOT  32:  E=   -1698.4104893356 Eh  3.915 eV  31580.5 cm**-1
      0.24527 [    19]: 21121
      0.12780 [    13]: 12220
      0.12230 [     9]: 12112
      0.11889 [    12]: 12211
      0.11325 [    21]: 21211
      0.06779 [    10]: 12121
      0.04338 [    26]: 22111
      0.03806 [     4]: 10222
      0.02835 [     6]: 11212
      0.02253 [    16]: 20221
      0.01870 [    28]: 22201
      0.01098 [     7]: 11221
      0.01092 [     5]: 11122
      0.01025 [    18]: 21112
      0.00712 [    14]: 20122
      0.00416 [    11]: 12202
      0.00288 [     8]: 12022
ROOT  33:  E=   -1698.3965971905 Eh  4.294 eV  34629.4 cm**-1
      0.19581 [    16]: 20221
      0.14848 [     2]: 02212
      0.13522 [    26]: 22111
      0.13482 [    21]: 21211
      0.13442 [    24]: 22021
      0.08772 [     1]: 02122
      0.06579 [     3]: 02221
      0.02256 [    19]: 21121
      0.01923 [     0]: 01222
      0.00947 [    22]: 21220
      0.00749 [    17]: 21022
      0.00655 [    18]: 21112
      0.00640 [    28]: 22201
      0.00420 [    23]: 22012
      0.00411 [    27]: 22120
      0.00380 [     9]: 12112
      0.00337 [    29]: 22210
      0.00311 [     6]: 11212
      0.00306 [     5]: 11122
ROOT  34:  E=   -1698.3953102709 Eh  4.329 eV  34911.9 cm**-1
      0.24161 [    22]: 21220
      0.20754 [    18]: 21112
      0.17841 [    17]: 21022
      0.07303 [     9]: 12112
      0.05214 [    20]: 21202
      0.04141 [    29]: 22210
      0.03777 [    23]: 22012
      0.03626 [     8]: 12022
      0.02673 [    11]: 12202
      0.01876 [     0]: 01222
      0.01643 [    25]: 22102
      0.01488 [     5]: 11122
      0.01224 [    14]: 20122
      0.00839 [     6]: 11212
      0.00775 [    15]: 20212
      0.00594 [    21]: 21211
      0.00375 [    10]: 12121
      0.00315 [    16]: 20221
      0.00284 [    24]: 22021
      0.00277 [    26]: 22111
ROOT  35:  E=   -1698.3264339411 Eh  6.203 eV  50028.5 cm**-1
      0.24308 [    23]: 22012
      0.12626 [    25]: 22102
      0.12040 [     2]: 02212
      0.07555 [     1]: 02122
      0.06260 [    24]: 22021
      0.04152 [    15]: 20212
      0.04006 [    26]: 22111
      0.04004 [    17]: 21022
      0.03825 [    14]: 20122
      0.03675 [     5]: 11122
      0.03444 [    29]: 22210
      0.02101 [     6]: 11212
      0.02091 [    27]: 22120
      0.02059 [     0]: 01222
      0.01403 [    28]: 22201
      0.01273 [    18]: 21112
      0.01101 [    21]: 21211
      0.00983 [     3]: 02221
      0.00849 [    20]: 21202
      0.00825 [    19]: 21121
      0.00624 [     9]: 12112
      0.00468 [    22]: 21220
ROOT  36:  E=   -1698.3191733011 Eh  6.400 eV  51622.0 cm**-1
      0.27090 [     8]: 12022
      0.21124 [    11]: 12202
      0.17681 [     4]: 10222
      0.12640 [    13]: 12220
      0.06000 [    19]: 21121
      0.02378 [    12]: 12211
      0.01972 [    16]: 20221
      0.01747 [    21]: 21211
      0.01589 [     9]: 12112
      0.01512 [    10]: 12121
      0.01111 [    26]: 22111
      0.01097 [    18]: 21112
      0.00737 [    25]: 22102
      0.00736 [    17]: 21022
      0.00735 [    20]: 21202
      0.00467 [    28]: 22201
      0.00450 [     7]: 11221
ROOT  37:  E=   -1698.3151230231 Eh  6.511 eV  52510.9 cm**-1
      0.15337 [     1]: 02122
      0.15308 [    27]: 22120
      0.14749 [    14]: 20122
      0.09467 [    25]: 22102
      0.07576 [     7]: 11221
      0.06992 [    15]: 20212
      0.06756 [     2]: 02212
      0.05799 [    29]: 22210
      0.03305 [    23]: 22012
      0.02705 [    22]: 21220
      0.01809 [    20]: 21202
      0.01461 [     6]: 11212
      0.01430 [     0]: 01222
      0.01384 [    12]: 12211
      0.01317 [    17]: 21022
      0.01249 [     5]: 11122
      0.01099 [    26]: 22111
      0.00735 [     4]: 10222
      0.00510 [    11]: 12202
      0.00393 [    18]: 21112
ROOT  38:  E=   -1698.3012451676 Eh  6.888 eV  55556.8 cm**-1
      0.45417 [    22]: 21220
      0.10013 [    17]: 21022
      0.09357 [    29]: 22210
      0.08694 [     0]: 01222
      0.06715 [    20]: 21202
      0.03727 [    10]: 12121
      0.02234 [     2]: 02212
      0.02126 [    23]: 22012
      0.01892 [    12]: 12211
      0.01793 [    21]: 21211
      0.01601 [    15]: 20212
      0.01569 [    18]: 21112
      0.01027 [     9]: 12112
      0.00924 [    19]: 21121
      0.00790 [     8]: 12022
      0.00475 [    11]: 12202
      0.00351 [    14]: 20122
      0.00263 [     6]: 11212
ROOT  39:  E=   -1698.2959146993 Eh  7.033 eV  56726.7 cm**-1
      0.46452 [    16]: 20221
      0.12134 [    28]: 22201
      0.11394 [    24]: 22021
      0.08912 [     3]: 02221
      0.06859 [    21]: 21211
      0.03051 [     5]: 11122
      0.02331 [    26]: 22111
      0.01454 [     2]: 02212
      0.01319 [    15]: 20212
      0.01268 [     6]: 11212
      0.00923 [     1]: 02122
      0.00814 [    11]: 12202
      0.00758 [     9]: 12112
      0.00544 [    14]: 20122
      0.00392 [    18]: 21112
      0.00277 [    20]: 21202

                 <<<<<<<<<<<<<<<<<<INITIAL CI STATE CHECK>>>>>>>>>>>>>>>>>>

   E(CAS)= -1698.508619963 Eh DE=    0.000000e+00
   --- Energy gap subspaces: Ext-Act = 1.397   Act-Int = -0.033
   --- current l-shift: Up(Ext-Act) = 1.00   Dn(Act-Int) = 2.03
   N(occ)=  1.40000 1.40000 1.40000 1.40000 1.40000
   ||g|| =     1.219281e+02 Max(G)=   -1.102095e+02 Rot=433,0
   --- Option=FreezeIE: ||g|| =    121.923497278 
                              = 100.00% 
                        Damping (0.029) elements outside Int-Ext
   --- Orbital Update [   SuperCI]
   SUPERCI-ITER   0: DE=    -0.261388133 <r|r>=      0.008952803
   SUPERCI-ITER   1: DE=    -0.001038184 <r|r>=      0.025452435
   SUPERCI-ITER   2: DE=    -0.000107369 <r|r>=      0.000207513
   SUPERCI-ITER   3: DE=    -0.000019217 <r|r>=      0.001066781
   SUPERCI-ITER   4: DE=    -0.000005292 <r|r>=      0.000053913
   SUPERCI-ITER   5: DE=    -0.000000882 <r|r>=      0.000001504
   SUPERCI-ITER   6: DE=    -0.000000176 <r|r>=      0.000001118
   SUPERCI-ITER   7: DE=    -0.000000046 <r|r>=      0.000000777
   SUPERCI-ITER   8: DE=    -0.000000008 <r|r>=      0.000000006
   SUPERCI-ITER   9: DE=    -0.000000001 <r|r>=      0.000000038
   SUPERCI-ITER  10: DE=    -0.000000000 
   <Psi(SX)|Psi(SX)>=      1.000000000 DE(SX)=-0.262559308
   Largest coefficient in the normalized |SX> wavefunction= 0.011250190
   --- Forming Natural Orbitals

MACRO-ITERATION   2: 
   --- Canonicalize Internal Space
   --- Canonicalize External Space
   --- Inactive Energy E0 = -1675.97526209 Eh
CI-ITERATION   0: 
 -1699.581357420   0.000000000000 (    0.00)
 -1699.577744795   0.000000000000
 -1699.567832596   0.000000000000
 -1699.543648092   0.000000000000
 -1699.535749248   0.000000000000
 -1699.516038708   0.000000000000
 -1699.514992260   0.000000000000
 -1699.479863526   0.000000000000
 -1699.476452577   0.000000000000
 -1699.457509680   0.000000000000
   CI-PROBLEM SOLVED
   DENSITIES MADE
CI-ITERATION   0: 
 -1699.522462382   0.000000000000 (    0.00)
 -1699.522252027   0.000000000000
 -1699.509145055   0.000000000000
 -1699.499532738   0.000000000000
 -1699.491663177   0.000000000000
 -1699.489596806   0.000000000000
 -1699.487850464   0.000000000000
 -1699.484109195   0.000000000000
 -1699.483356920   0.000000000000
 -1699.483126475   0.000000000000
 -1699.468289803   0.000000000000
 -1699.465489947   0.000000000000
 -1699.461388815   0.000000000000
 -1699.455225039   0.000000000000
 -1699.454891288   0.000000000000
 -1699.448092162   0.000000000000
 -1699.444956757   0.000000000000
 -1699.444487756   0.000000000000
 -1699.442193556   0.000000000000
 -1699.434356150   0.000000000000
 -1699.430830186   0.000000000000
 -1699.429588184   0.000000000000
 -1699.427841123   0.000000000000
 -1699.425439843   0.000000000000
 -1699.425017402   0.000000000000
 -1699.419225602   0.000000000000
 -1699.401732753   0.000000000000
 -1699.389825708   0.000000000000
 -1699.389463031   0.000000000000
 -1699.385988062   0.000000000000
 -1699.376026951   0.000000000000
 -1699.375330209   0.000000000000
 -1699.374356157   0.000000000000
 -1699.360262510   0.000000000000
 -1699.354356262   0.000000000000
 -1699.283782528   0.000000000000
 -1699.280229097   0.000000000000
 -1699.276394510   0.000000000000
 -1699.267320127   0.000000000000
 -1699.261643234   0.000000000000
   CI-PROBLEM SOLVED
   DENSITIES MADE
   E(CAS)= -1699.472898445 Eh DE=   -9.642785e-01
   --- Energy gap subspaces: Ext-Act = 0.502   Act-Int = -0.039
   --- current l-shift: Up(Ext-Act) = 1.00   Dn(Act-Int) = 1.54
   N(occ)=  1.40000 1.40000 1.40000 1.40000 1.40000
   ||g|| =     3.619889e+01 Max(G)=   -3.276626e+01 Rot=433,0
   --- Option=FreezeIE: ||g|| =     36.184221295 
                              = 99.96% 
                        Damping (0.029) elements outside Int-Ext
   --- Orbital Update [   SuperCI]
   SUPERCI-ITER   0: DE=    -0.024535449 <r|r>=      0.000005915
   SUPERCI-ITER   1: DE=    -0.000002105 <r|r>=      0.000078054
   SUPERCI-ITER   2: DE=    -0.000000052 <r|r>=      0.000000094
   SUPERCI-ITER   3: DE=    -0.000000001 <r|r>=      0.000000000
   <Psi(SX)|Psi(SX)>=      1.000000000 DE(SX)=-0.024537607
   Largest coefficient in the normalized |SX> wavefunction= 0.011205336
   --- Forming Natural Orbitals

MACRO-ITERATION   3: 
   --- Canonicalize Internal Space
   --- Canonicalize External Space
   --- Inactive Energy E0 = -1676.05110487 Eh
CI-ITERATION   0: 
 -1699.674575271   0.000000000000 (    0.00)
 -1699.670944900   0.000000000000
 -1699.660749491   0.000000000000
 -1699.637044962   0.000000000000
 -1699.629285302   0.000000000000
 -1699.609645269   0.000000000000
 -1699.608738397   0.000000000000
 -1699.573421657   0.000000000000
 -1699.569774079   0.000000000000
 -1699.550260315   0.000000000000
   CI-PROBLEM SOLVED
   DENSITIES MADE
CI-ITERATION   0: 
 -1699.615281974   0.000000000000 (    0.00)
 -1699.615179766   0.000000000000
 -1699.602223179   0.000000000000
 -1699.592685604   0.000000000000
 -1699.584790434   0.000000000000
 -1699.582580821   0.000000000000
 -1699.580920755   0.000000000000
 -1699.577240321   0.000000000000
 -1699.576027172   0.000000000000
 -1699.575784386   0.000000000000
 -1699.561438719   0.000000000000
 -1699.558611189   0.000000000000
 -1699.554283343   0.000000000000
 -1699.548467233   0.000000000000
 -1699.548111561   0.000000000000
 -1699.541319745   0.000000000000
 -1699.538049614   0.000000000000
 -1699.537679817   0.000000000000
 -1699.535199528   0.000000000000
 -1699.527380195   0.000000000000
 -1699.524269209   0.000000000000
 -1699.523280811   0.000000000000
 -1699.521395069   0.000000000000
 -1699.518278897   0.000000000000
 -1699.517936589   0.000000000000
 -1699.512909983   0.000000000000
 -1699.495020576   0.000000000000
 -1699.484464034   0.000000000000
 -1699.482512624   0.000000000000
 -1699.478923606   0.000000000000
 -1699.468897631   0.000000000000
 -1699.467848920   0.000000000000
 -1699.467699838   0.000000000000
 -1699.453619275   0.000000000000
 -1699.447855863   0.000000000000
 -1699.377403826   0.000000000000
 -1699.373600447   0.000000000000
 -1699.369189474   0.000000000000
 -1699.359710029   0.000000000000
 -1699.354258705   0.000000000000
   CI-PROBLEM SOLVED
   DENSITIES MADE
   E(CAS)= -1699.566126117 Eh DE=   -9.322767e-02
   --- Energy gap subspaces: Ext-Act = 0.496   Act-Int = -0.033
   --- current l-shift: Up(Ext-Act) = 0.84   Dn(Act-Int) = 1.37
   N(occ)=  1.40000 1.40000 1.40000 1.40000 1.40000
   ||g|| =     1.075216e+01 Max(G)=    9.703412e+00 Rot=433,0
   --- Option=FreezeIE: ||g|| =     10.703984283 
                              = 99.55% 
                        Damping (0.029) elements outside Int-Ext
   --- Orbital Update [   SuperCI]
   SUPERCI-ITER   0: DE=    -0.002559658 <r|r>=      0.000001022
   SUPERCI-ITER   1: DE=    -0.000000467 <r|r>=      0.000000683
   SUPERCI-ITER   2: DE=    -0.000000003 <r|r>=      0.000000342
   Warning: Orthogonalization failed (-1e-15)! Terminating Iterations.
   <Psi(SX)|Psi(SX)>=      1.000000000 DE(SX)=-0.002560128
   Largest coefficient in the normalized |SX> wavefunction= 0.007265112
   --- Forming Natural Orbitals

MACRO-ITERATION   4: 
   --- Canonicalize Internal Space
   --- Canonicalize External Space
   --- Inactive Energy E0 = -1676.01119751 Eh
CI-ITERATION   0: 
 -1699.685813907   0.000000000000 (    0.00)
 -1699.682290885   0.000000000000
 -1699.672025076   0.000000000000
 -1699.649375248   0.000000000000
 -1699.641833288   0.000000000000
 -1699.622199892   0.000000000000
 -1699.621353321   0.000000000000
 -1699.585773596   0.000000000000
 -1699.581299836   0.000000000000
 -1699.562144439   0.000000000000
   CI-PROBLEM SOLVED
   DENSITIES MADE
CI-ITERATION   0: 
 -1699.626400579   0.000000000000 (    0.00)
 -1699.626336964   0.000000000000
 -1699.613386690   0.000000000000
 -1699.603973837   0.000000000000
 -1699.595968020   0.000000000000
 -1699.593950234   0.000000000000
 -1699.592389027   0.000000000000
 -1699.588704740   0.000000000000
 -1699.587015044   0.000000000000
 -1699.586756534   0.000000000000
 -1699.573388689   0.000000000000
 -1699.570336903   0.000000000000
 -1699.565879317   0.000000000000
 -1699.560421391   0.000000000000
 -1699.559881243   0.000000000000
 -1699.552931883   0.000000000000
 -1699.549645468   0.000000000000
 -1699.549381947   0.000000000000
 -1699.546834224   0.000000000000
 -1699.539231458   0.000000000000
 -1699.536479402   0.000000000000
 -1699.535581309   0.000000000000
 -1699.533803346   0.000000000000
 -1699.529770541   0.000000000000
 -1699.529611702   0.000000000000
 -1699.525559258   0.000000000000
 -1699.507736659   0.000000000000
 -1699.498519820   0.000000000000
 -1699.494043579   0.000000000000
 -1699.490305437   0.000000000000
 -1699.481046661   0.000000000000
 -1699.479252951   0.000000000000
 -1699.479126434   0.000000000000
 -1699.465810397   0.000000000000
 -1699.460664572   0.000000000000
 -1699.390138817   0.000000000000
 -1699.385816783   0.000000000000
 -1699.380881247   0.000000000000
 -1699.370799528   0.000000000000
 -1699.365667397   0.000000000000
   CI-PROBLEM SOLVED
   DENSITIES MADE
   E(CAS)= -1699.577998350 Eh DE=   -1.187223e-02
   --- Energy gap subspaces: Ext-Act = 0.504   Act-Int = -0.033
   --- current l-shift: Up(Ext-Act) = 0.50   Dn(Act-Int) = 1.03
   N(occ)=  1.40000 1.40000 1.40000 1.40000 1.40000
   ||g|| =     3.317101e+00 Max(G)=    2.867594e+00 Rot=433,0
   --- Option=FreezeIE: ||g|| =      3.161679340 
                              = 95.31% 
                        Damping (0.029) elements outside Int-Ext
   --- Orbital Update [   SuperCI]
   SUPERCI-ITER   0: DE=    -0.000353306 <r|r>=      0.000000529
   SUPERCI-ITER   1: DE=    -0.000000224 <r|r>=      0.000000563
   SUPERCI-ITER   2: DE=    -0.000000003 <r|r>=      0.000000143
   SUPERCI-ITER   3: DE=    -0.000000000 
   <Psi(SX)|Psi(SX)>=      1.000000000 DE(SX)=-0.000353533
   Largest coefficient in the normalized |SX> wavefunction= 0.005078447
   --- Forming Natural Orbitals

MACRO-ITERATION   5: 
   --- Canonicalize Internal Space
   --- Canonicalize External Space
   --- Inactive Energy E0 = -1675.96179902 Eh
CI-ITERATION   0: 
 -1699.688600679   0.000000000000 (    0.00)
 -1699.685174715   0.000000000000
 -1699.674973648   0.000000000000
 -1699.653287414   0.000000000000
 -1699.645942981   0.000000000000
 -1699.626307213   0.000000000000
 -1699.625527023   0.000000000000
 -1699.589740593   0.000000000000
 -1699.584261231   0.000000000000
 -1699.565756130   0.000000000000
   CI-PROBLEM SOLVED
   DENSITIES MADE
CI-ITERATION   0: 
 -1699.629079981   0.000000000000 (    0.00)
 -1699.629060741   0.000000000000
 -1699.616047730   0.000000000000
 -1699.606812213   0.000000000000
 -1699.598678093   0.000000000000
 -1699.596914486   0.000000000000
 -1699.595442169   0.000000000000
 -1699.591684303   0.000000000000
 -1699.589697488   0.000000000000
 -1699.589424212   0.000000000000
 -1699.576875328   0.000000000000
 -1699.573661284   0.000000000000
 -1699.569051537   0.000000000000
 -1699.563970769   0.000000000000
 -1699.563135438   0.000000000000
 -1699.556174911   0.000000000000
[...]
 3 106   47619.7    210.0   0.00000   0.00000   0.00000   0.00000000000032   0.46123   0.52305   0.01571
 3 107   47619.7    210.0   0.00000   0.00076   0.00000   0.00000000003830   0.00360   0.99627   0.00013
 3 108   47957.1    208.5   0.00000   0.00000   0.00000   0.00000000000032   0.94337   0.04007   0.01655
 3 109   47957.1    208.5   0.00000   0.00000   0.00000   0.00000000000016   0.85727   0.00625   0.13647
 3 110   66092.8    151.3   0.00000   0.00000   0.00000   0.00000000000022   0.32179   0.63921   0.03900
 3 111   66092.8    151.3   0.00000   0.00000   0.00000   0.00000000000007   0.73189   0.15928   0.10883
 3 112   67796.1    147.5   0.00000   0.00000   0.00000   0.00000000000012   0.06592   0.82263   0.11145
 3 113   67796.1    147.5   0.00000   0.00000   0.00000   0.00000000000016   0.09907   0.83771   0.06322
 3 114   68965.1    145.0   0.00000   0.00000   0.00000   0.00000000000038   0.72647   0.16002   0.11351
 3 115   68965.1    145.0   0.00000   0.00000   0.00000   0.00000000000006   0.08185   0.45759   0.46056
 3 116   74919.0    133.5   0.00000   0.00000   0.00000   0.00000000000123   0.89702   0.02085   0.08213
 3 117   74919.0    133.5   0.00000   0.00000   0.00000   0.00000000000011   0.42440   0.01936   0.55624
 3 118   75474.1    132.5   0.00000   0.00003   0.00000   0.00000000000150   0.07334   0.91947   0.00720
 3 119   75474.1    132.5   0.00000   0.00000   0.00000   0.00000000000020   0.53408   0.41597   0.04994

Done

                 =============================
                 AB INITIO LIGAND FIELD THEORY
                       d7 configuration
                          2 CI blocks
                         MOs 35 to 39
                 =============================

Metal/Atom center is atom 0
orbital phases =   1.0   1.0   1.0   1.0   1.0 
Metal/Atom d-orbital parts of active orbitals
Shell 15
             35        36        37        38        39
dz2     :  0.611584 -0.000020 -0.000063 -0.002021  0.000052
dxz     : -0.001319  0.618884  0.000014 -0.000067 -0.000929
dyz     : -0.000671 -0.000011  0.615486  0.000106 -0.000058
dx2y2   :  0.015453  0.002021  0.001178  0.603614 -0.000018
dxy     : -0.000399 -0.001932 -0.000101  0.000855  0.619097
Shell 16
             35        36        37        38        39
dz2     :  0.410724  0.000046  0.000109 -0.000119  0.000059
dxz     : -0.000721  0.412577 -0.000033 -0.000290 -0.000573
dyz     : -0.000410 -0.000047  0.413955 -0.000012 -0.000005
dx2y2   :  0.011578  0.001351  0.000523  0.403896 -0.000002
dxy     : -0.000100 -0.001232 -0.000047  0.000382  0.412705
Shell 17
             35        36        37        38        39
dz2     :  0.211517  0.000165 -0.000086  0.005191 -0.000385
dxz     : -0.000738  0.215193  0.000113  0.001438  0.006256
dyz     :  0.000162  0.000101  0.216442 -0.000637  0.000278
dx2y2   :  0.011213  0.001070  0.000556  0.201717 -0.000120
dxy     : -0.001187  0.005871  0.000312  0.001028  0.214593
Shell 20
             35        36        37        38        39
dz2     : -0.002868  0.000468  0.000669  0.021426  0.001891
dxz     :  0.000213  0.005965 -0.001729 -0.002192  0.004400
dyz     :  0.001504 -0.000370  0.008707 -0.002777 -0.000337
dx2y2   :  0.021091 -0.001748 -0.001136 -0.028463 -0.002385
dxy     :  0.002220  0.004385 -0.001623 -0.002547  0.005339

Adjusting phases of one-electron integrals               ... done
Adjusting phases of two-electron integrals               ... done


-----------------------------------------------------------------
Computing F0s from 2-electron integrals                  ... done 
-----------------------------------------------------------------
F0   =  0.896301578 a.u. =    24.390 eV =  196715.5 cm**-1
-----------------------------------------------------------------

Preparing for fit                                        ... done
Making fit matrices                                      ... done
Calculating ab initio Hamiltonian matrices               ... 
Calculating fit matrices                                 ... done
Fitting                                                  ... done

------------------------------
AILFT MATRIX ELEMENTS (CASSCF)
--------------------------------

Ligand field one-electron matrix VLFT (a.u.) : 
Orbital          dz2        dxz        dyz        dx2-y2     dxy
  dz2         -6.297855  -0.000038  -0.000763  -0.017042   0.000425 
  dxz         -0.000038  -6.290012  -0.000020  -0.001070  -0.006311 
  dyz         -0.000763  -0.000020  -6.307304   0.001362  -0.000484 
  dx2-y2      -0.017042  -0.001070   0.001362  -6.276652  -0.000136 
  dxy          0.000425  -0.006311  -0.000484  -0.000136  -6.289377 

-------------------------------------------------
Slater-Condon Parameters (electronic repulsion) : 
-------------------------------------------------
F0dd(from 2el Ints)     =  0.896301578 a.u. =    24.390 eV =  196715.5 cm**-1 (fixed)
F2dd                    =  0.406976611 a.u. =    11.074 eV =   89321.0 cm**-1
F4dd                    =  0.257164952 a.u. =     6.998 eV =   56441.2 cm**-1
-------------------
Racah Parameters : 
-------------------
A(F0dd from 2el Ints)   =  0.867727694 a.u. =    23.612 eV =  190444.2 cm**-1
B                       =  0.005389943 a.u. =     0.147 eV =    1183.0 cm**-1
C                       =  0.020409917 a.u. =     0.555 eV =    4479.5 cm**-1
C/B                     =  3.787
-------------------------------------------------------------------------------

-----------------------------------------
The ligand field one electron eigenfunctions:
-----------------------------------------
Orbital    Energy (eV)  Energy(cm-1)      dz2        dxz        dyz        dx2-y2     dxy
    1          0.000        0.0         0.063462   0.011402   0.997455  -0.008479   0.029244 
    2          0.001        7.9         0.871320   0.028971  -0.051389   0.487089  -0.008128 
    3          0.309     2490.9         0.030383  -0.724542   0.026344  -0.019954  -0.687767 
    4          0.653     5270.5         0.033052  -0.687437  -0.015575  -0.007778   0.725283 
    5          1.096     8843.4         0.484519   0.038736  -0.038821  -0.873049   0.004439 
Ligand field orbitals were stored in rho.casscf.lft.gbw

Calculating ligand field Hamiltonian matrices          ... done
Diagonalizing and fitting the ligand field Hamiltonian ... done
Calculating statistical parameters                     ... done

Reference energy AI-LFT =    -25.784043593 au
Reference energy AI     =    -25.783242554 au

------------------------------------------------
COMPARISON OF AB INITIO AND LIGAND FIELD RESULTS
------------------------------------------------

Block   1
---------
   AI-Root   0: E(AI)=    0.000 eV -> LF-Root   0:     0.000 eV    S= 0.723 Delta=    0.000 eV
   AI-Root   1: E(AI)=    0.001 eV -> LF-Root   1:     0.003 eV    S= 0.723 Delta=   -0.002 eV
   AI-Root   2: E(AI)=    0.266 eV -> LF-Root   2:     0.256 eV    S= 0.999 Delta=    0.010 eV
   AI-Root   3: E(AI)=    0.419 eV -> LF-Root   3:     0.417 eV    S= 0.956 Delta=    0.003 eV
   AI-Root   4: E(AI)=    0.447 eV -> LF-Root   4:     0.444 eV    S= 0.957 Delta=    0.003 eV
   AI-Root   5: E(AI)=    0.591 eV -> LF-Root   5:     0.670 eV    S= 0.891 Delta=   -0.079 eV
   AI-Root   6: E(AI)=    0.592 eV -> LF-Root   6:     0.671 eV    S= 0.891 Delta=   -0.079 eV
   AI-Root   7: E(AI)=    2.112 eV -> LF-Root   7:     2.056 eV    S= 1.000 Delta=    0.056 eV
   AI-Root   8: E(AI)=    2.810 eV -> LF-Root   8:     2.870 eV    S= 0.999 Delta=   -0.060 eV
   AI-Root   9: E(AI)=    3.126 eV -> LF-Root   9:     3.191 eV    S= 0.999 Delta=   -0.065 eV
   (Dropping RMS error for the reference energy)
   RMS error for this block =     0.051 eV =     412.4 cm**-1 

Block   2
---------
   AI-Root   0: E(AI)=    2.150 eV -> LF-Root   0:     2.184 eV    S= 0.928 Delta=   -0.033 eV
   AI-Root   1: E(AI)=    2.152 eV -> LF-Root   1:     2.186 eV    S= 0.929 Delta=   -0.035 eV
   AI-Root   2: E(AI)=    2.263 eV -> LF-Root   2:     2.298 eV    S= 0.994 Delta=   -0.035 eV
   AI-Root   3: E(AI)=    2.327 eV -> LF-Root   3:     2.371 eV    S= 0.986 Delta=   -0.045 eV
   AI-Root   4: E(AI)=    2.461 eV -> LF-Root   4:     2.529 eV    S= 0.993 Delta=   -0.068 eV
   AI-Root   5: E(AI)=    2.466 eV -> LF-Root   5:     2.461 eV    S= 0.999 Delta=    0.005 eV
   AI-Root   6: E(AI)=    2.493 eV -> LF-Root   6:     2.547 eV    S= 0.984 Delta=   -0.054 eV
   AI-Root   7: E(AI)=    2.780 eV -> LF-Root   7:     2.809 eV    S= 0.906 Delta=   -0.030 eV
   AI-Root   8: E(AI)=    2.782 eV -> LF-Root   8:     2.832 eV    S= 0.922 Delta=   -0.050 eV
   AI-Root   9: E(AI)=    2.785 eV -> LF-Root   9:     2.860 eV    S= 0.784 Delta=   -0.075 eV
   AI-Root  10: E(AI)=    2.845 eV -> LF-Root  10:     2.837 eV    S= 0.788 Delta=    0.008 eV
   AI-Root  11: E(AI)=    2.848 eV -> LF-Root  11:     2.846 eV    S= 0.985 Delta=    0.002 eV
   AI-Root  12: E(AI)=    3.137 eV -> LF-Root  12:     3.134 eV    S= 0.987 Delta=    0.004 eV
   AI-Root  13: E(AI)=    3.145 eV -> LF-Root  13:     3.137 eV    S= 0.984 Delta=    0.008 eV
   AI-Root  14: E(AI)=    3.199 eV -> LF-Root  14:     3.191 eV    S= 0.994 Delta=    0.008 eV
   AI-Root  15: E(AI)=    3.283 eV -> LF-Root  15:     3.268 eV    S= 0.994 Delta=    0.015 eV
   AI-Root  16: E(AI)=    3.346 eV -> LF-Root  16:     3.323 eV    S= 0.999 Delta=    0.022 eV
   AI-Root  17: E(AI)=    3.413 eV -> LF-Root  17:     3.452 eV    S= 0.992 Delta=   -0.039 eV
   AI-Root  18: E(AI)=    3.422 eV -> LF-Root  18:     3.422 eV    S= 0.988 Delta=    0.000 eV
   AI-Root  19: E(AI)=    3.446 eV -> LF-Root  19:     3.482 eV    S= 0.992 Delta=   -0.036 eV
   AI-Root  20: E(AI)=    3.581 eV -> LF-Root  20:     3.586 eV    S= 0.997 Delta=   -0.005 eV
   AI-Root  21: E(AI)=    3.596 eV -> LF-Root  21:     3.605 eV    S= 0.994 Delta=   -0.009 eV
   AI-Root  22: E(AI)=    3.663 eV -> LF-Root  22:     3.670 eV    S= 0.996 Delta=   -0.006 eV
   AI-Root  23: E(AI)=    3.735 eV -> LF-Root  23:     3.777 eV    S= 0.997 Delta=   -0.042 eV
   AI-Root  24: E(AI)=    3.856 eV -> LF-Root  24:     3.907 eV    S= 0.991 Delta=   -0.050 eV
   AI-Root  25: E(AI)=    3.871 eV -> LF-Root  25:     3.851 eV    S= 0.990 Delta=    0.020 eV
   AI-Root  26: E(AI)=    4.062 eV -> LF-Root  26:     4.126 eV    S= 0.791 Delta=   -0.064 eV
   AI-Root  27: E(AI)=    4.062 eV -> LF-Root  27:     4.126 eV    S= 0.791 Delta=   -0.064 eV
   AI-Root  28: E(AI)=    5.415 eV -> LF-Root  28:     5.441 eV    S= 1.000 Delta=   -0.026 eV
   AI-Root  29: E(AI)=    5.471 eV -> LF-Root  29:     5.509 eV    S= 1.000 Delta=   -0.038 eV
   AI-Root  30: E(AI)=    5.624 eV -> LF-Root  30:     5.669 eV    S= 0.999 Delta=   -0.046 eV
   AI-Root  31: E(AI)=    5.719 eV -> LF-Root  31:     5.740 eV    S= 1.000 Delta=   -0.021 eV
   AI-Root  32: E(AI)=    5.758 eV -> LF-Root  32:     5.782 eV    S= 1.000 Delta=   -0.024 eV
   AI-Root  33: E(AI)=    5.885 eV -> LF-Root  33:     5.919 eV    S= 0.979 Delta=   -0.034 eV
   AI-Root  34: E(AI)=    5.886 eV -> LF-Root  34:     5.921 eV    S= 0.979 Delta=   -0.035 eV
   AI-Root  35: E(AI)=    8.154 eV -> LF-Root  35:     8.098 eV    S= 1.000 Delta=    0.056 eV
   AI-Root  36: E(AI)=    8.370 eV -> LF-Root  36:     8.398 eV    S= 0.998 Delta=   -0.027 eV
   AI-Root  37: E(AI)=    8.504 eV -> LF-Root  37:     8.556 eV    S= 0.998 Delta=   -0.052 eV
   AI-Root  38: E(AI)=    9.278 eV -> LF-Root  38:     9.268 eV    S= 0.995 Delta=    0.010 eV
   AI-Root  39: E(AI)=    9.288 eV -> LF-Root  39:     9.278 eV    S= 0.995 Delta=    0.010 eV
   RMS error for this block =     0.036 eV =     294.2 cm**-1 

Total RMS error g=     0.040 eV =     319.2 cm**-1
Note: Dropped RMS error for the reference energy.

Confidence intervals (95%) computed from the square root of the
diagonal elements of the covariance matrix:
H(dz2   ,dz2   )=  0.000216538 a.u. =     0.006 eV =      47.5 cm**-1
H(dxz   ,dz2   )=  0.000183194 a.u. =     0.005 eV =      40.2 cm**-1
H(dxz   ,dxz   )=  0.000216538 a.u. =     0.006 eV =      47.5 cm**-1
H(dyz   ,dz2   )=  0.000183194 a.u. =     0.005 eV =      40.2 cm**-1
H(dyz   ,dxz   )=  0.000183194 a.u. =     0.005 eV =      40.2 cm**-1
H(dyz   ,dyz   )=  0.000216538 a.u. =     0.006 eV =      47.5 cm**-1
H(dx2-y2,dz2   )=  0.000183194 a.u. =     0.005 eV =      40.2 cm**-1
H(dx2-y2,dxz   )=  0.000183194 a.u. =     0.005 eV =      40.2 cm**-1
H(dx2-y2,dyz   )=  0.000183194 a.u. =     0.005 eV =      40.2 cm**-1
H(dx2-y2,dx2-y2)=  0.000216538 a.u. =     0.006 eV =      47.5 cm**-1
H(dxy   ,dz2   )=  0.000183194 a.u. =     0.005 eV =      40.2 cm**-1
H(dxy   ,dxz   )=  0.000183194 a.u. =     0.005 eV =      40.2 cm**-1
H(dxy   ,dyz   )=  0.000183194 a.u. =     0.005 eV =      40.2 cm**-1
H(dxy   ,dx2-y2)=  0.000183194 a.u. =     0.005 eV =      40.2 cm**-1
H(dxy   ,dxy   )=  0.000216538 a.u. =     0.006 eV =      47.5 cm**-1
F2dd            =  0.000777627 a.u. =     0.021 eV =     170.7 cm**-1
F4dd            =  0.001127835 a.u. =     0.031 eV =     247.5 cm**-1
Pearson's correlation coefficient =    1.000 (should be close to 1)

----------------------------------------------
SPIN ORBIT COUPLING (based on CASSCF orbitals)
----------------------------------------------

AI-SOC-X integrals (cm-1)
                  0          1          2          3          4    
      0       0.000000   0.363795 902.326685   0.559400  -1.357944
      1      -0.363795   0.000000   1.487358   0.839508 523.611676
      2     -902.326685  -1.487358  -0.000000 -503.818336  -0.111629
      3      -0.559400  -0.839508 503.818336  -0.000000   0.057388
      4       1.357944 -523.611676   0.111629  -0.057388   0.000000
AI-SOC-Y integrals (cm-1)
                  0          1          2          3          4    
      0      -0.000000 -879.753538  -0.351499   1.038539   1.309499
      1     879.753538   0.000000  -2.623834 -508.833231  -0.110328
      2       0.351499   2.623834   0.000000  -0.779390 -520.292694
      3      -1.038539 508.833231   0.779390   0.000000  -0.075773
      4      -1.309499   0.110328 520.292694   0.075773  -0.000000
AI-SOC-Z integrals (cm-1)
                  0          1          2          3          4    
      0       0.000000  -0.123819   1.232275  -0.757139 -28.512065
      1       0.123819  -0.000000 -520.119775  -2.361231  -3.725927
      2      -1.232275 520.119775  -0.000000  -0.107307  -2.686478
      3       0.757139   2.361231   0.107307  -0.000000 -1016.228363
      4      28.512065   3.725927   2.686478 1016.228363   0.000000

Fit to the SOC matrix elements
a = 15.000000
b =     0.954 eV =    7695.8 cm**-1
SOC constant zeta =     0.064 eV =     513.1 cm**-1


LF-SOC-X integrals (cm-1)
                  0          1          2          3          4    
      0       0.000000  -0.000000 888.632815  -0.000000  -0.000000
      1       0.000000   0.000000  -0.000000  -0.000000 513.052395
      2     -888.632815   0.000000   0.000000 -513.052395  -0.000000
      3       0.000000   0.000000 513.052395   0.000000  -0.000000
      4       0.000000 -513.052395   0.000000   0.000000   0.000000
LF-SOC-Y integrals (cm-1)
                  0          1          2          3          4    
      0       0.000000 -888.632815  -0.000000  -0.000000  -0.000000
      1     888.632815   0.000000  -0.000000 -513.052395  -0.000000
      2       0.000000   0.000000   0.000000  -0.000000 -513.052395
      3       0.000000 513.052395   0.000000   0.000000  -0.000000
      4       0.000000   0.000000 513.052395   0.000000   0.000000
LF-SOC-Z integrals (cm-1)
                  0          1          2          3          4    
      0       0.000000  -0.000000  -0.000000  -0.000000  -0.000000
      1       0.000000   0.000000 -513.052395  -0.000000  -0.000000
      2       0.000000 513.052395   0.000000  -0.000000  -0.000000
      3       0.000000   0.000000   0.000000   0.000000 -1026.104790
      4       0.000000   0.000000   0.000000 1026.104790   0.000000

RMS error of nonzero matrix elements =    7.4 cm**-1


-----SOC-CONSTANTS-----
---All Values in cm-1---
ZETA_D = 513.05 
------------------------




---AILFT COMPLETED SUCCESFULLY!---

--------------
CASSCF TIMINGS
--------------

Total time                       ...      424.3 sec
Sum of individual times          ...      420.5 sec ( 99.1%)

Calculation of AO operators
   F(Core) operator              ...      168.6 sec ( 39.7%)
   G(Act) operator               ...      159.5 sec ( 37.6%)
   J(AO) operators               ...        0.0 sec (  0.0%)
Calculation of MO transformed quantities
   J(MO) operators               ...       26.9 sec (  6.3%)
   (pq|rs) integrals             ...        0.0 sec (  0.0%)
   AO->MO one electron integrals ...        0.9 sec (  0.2%)
Configuration interaction steps
   CI-setup phase                ...        0.0 sec (  0.0%)
   CI-solution phase             ...        1.1 sec (  0.3%)
   Generation of densities       ...        0.1 sec (  0.0%)
Orbital improvement steps
   Orbital gradient              ...        0.3 sec (  0.1%)
   O(1) converger                ...        5.7 sec (  1.4%)
Properties                       ...       36.9 sec (  8.7%)
   SOC integral calculation      ...       20.4 sec (  4.8%)
   SSC RMEs (incl. integrals)    ...        0.0 sec (  0.0%)
   SOC RMEs                      ...        0.2 sec (  0.0%)

Maximum memory used throughout the entire CASSCF-calculation: 419.5 MB

-------------------------   --------------------
FINAL SINGLE POINT ENERGY     -1699.650205211852
-------------------------   --------------------


                            ***************************************
                            *     ORCA property calculations      *
                            ***************************************

                                    ---------------------
                                    Active property flags
                                    ---------------------
   (+) Dipole Moment


------------------------------------------------------------------------------
                       ORCA ELECTRIC PROPERTIES CALCULATION
------------------------------------------------------------------------------

Dipole Moment Calculation                       ... on
Quadrupole Moment Calculation                   ... off
Polarizability Calculation                      ... off
GBWName                                         ... rho.gbw
Electron density                                ... rho.scfp
The origin for moment calculation is the CENTER OF MASS  = ( 0.001840, -0.159533  0.150468)

-------------
DIPOLE MOMENT
-------------
                                X             Y             Z
Electronic contribution:      0.02169      -2.55973       2.45428
Nuclear contribution   :     -0.01857       2.36455      -2.26657
                        -----------------------------------------
Total Dipole Moment    :      0.00311      -0.19518       0.18771
                        -----------------------------------------
Magnitude (a.u.)       :      0.27082
Magnitude (Debye)      :      0.68836



--------------------
Rotational spectrum 
--------------------
 
Rotational constants in cm-1:     0.344071     0.018404     0.018372 
Rotational constants in MHz : 10315.001217   551.739852   550.785291 

 Dipole components along the rotational axes: 
x,y,z [a.u.] :    -0.000218    -0.270260    -0.017352 
x,y,z [Debye]:    -0.000555    -0.686947    -0.044105 

 

Timings for individual modules:

Sum of individual times         ...      446.787 sec (=   7.446 min)
GTO integral calculation        ...        5.276 sec (=   0.088 min)   1.2 %
Relativistic integrals          ...        3.942 sec (=   0.066 min)   0.9 %
SCF iterations                  ...        4.985 sec (=   0.083 min)   1.1 %
CASSCF iterations               ...      432.584 sec (=   7.210 min)  96.8 %
                             ****ORCA TERMINATED NORMALLY****
TOTAL RUN TIME: 0 days 0 hours 7 minutes 31 seconds 517 msec
