
                                 *****************
                                 * O   R   C   A *
                                 *****************

                                            #,                                       
                                            ###                                      
                                            ####                                     
                                            #####                                    
                                            ######                                   
                                           ########,                                 
                                     ,,################,,,,,                         
                               ,,#################################,,                 
                          ,,##########################################,,             
                       ,#########################################, ''#####,          
                    ,#############################################,,   '####,        
                  ,##################################################,,,,####,       
                ,###########''''           ''''###############################       
              ,#####''   ,,,,##########,,,,          '''####'''          '####       
            ,##' ,,,,###########################,,,                        '##       
           ' ,,###''''                  '''############,,,                           
         ,,##''                                '''############,,,,        ,,,,,,###''
      ,#''                                            '''#######################'''  
     '                                                          ''''####''''         
             ,#######,   #######,   ,#######,      ##                                
            ,#'     '#,  ##    ##  ,#'     '#,    #''#        ######   ,####,        
            ##       ##  ##   ,#'  ##            #'  '#       #        #'  '#        
            ##       ##  #######   ##           ,######,      #####,   #    #        
            '#,     ,#'  ##    ##  '#,     ,#' ,#      #,         ##   #,  ,#        
             '#######'   ##     ##  '#######'  #'      '#     #####' # '####'        



                  #######################################################
                  #                        -***-                        #
                  #          Department of theory and spectroscopy      #
                  #    Directorship and core code : Frank Neese         #
                  #        Max Planck Institute fuer Kohlenforschung    #
                  #                Kaiser Wilhelm Platz 1               #
                  #                 D-45470 Muelheim/Ruhr               #
                  #                      Germany                        #
                  #                                                     #
                  #                  All rights reserved                #
                  #                        -***-                        #
                  #######################################################


                         Program Version 5.0.4 -  RELEASE  -


 With contributions from (in alphabetic order):
   Daniel Aravena         : Magnetic Suceptibility
   Michael Atanasov       : Ab Initio Ligand Field Theory (pilot matlab implementation)
   Alexander A. Auer      : GIAO ZORA, VPT2 properties, NMR spectrum
   Ute Becker             : Parallelization
   Giovanni Bistoni       : ED, misc. LED, open-shell LED, HFLD
   Martin Brehm           : Molecular dynamics
   Dmytro Bykov           : SCF Hessian
   Vijay G. Chilkuri      : MRCI spin determinant printing, contributions to CSF-ICE
   Dipayan Datta          : RHF DLPNO-CCSD density
   Achintya Kumar Dutta   : EOM-CC, STEOM-CC
   Dmitry Ganyushin       : Spin-Orbit,Spin-Spin,Magnetic field MRCI
   Miquel Garcia          : C-PCM and meta-GGA Hessian, CC/C-PCM, Gaussian charge scheme
   Yang Guo               : DLPNO-NEVPT2, F12-NEVPT2, CIM, IAO-localization
   Andreas Hansen         : Spin unrestricted coupled pair/coupled cluster methods
   Benjamin Helmich-Paris : MC-RPA, TRAH-SCF, COSX integrals
   Lee Huntington         : MR-EOM, pCC
   Robert Izsak           : Overlap fitted RIJCOSX, COSX-SCS-MP3, EOM
   Marcus Kettner         : VPT2
   Christian Kollmar      : KDIIS, OOCD, Brueckner-CCSD(T), CCSD density, CASPT2, CASPT2-K
   Simone Kossmann        : Meta GGA functionals, TD-DFT gradient, OOMP2, MP2 Hessian
   Martin Krupicka        : Initial AUTO-CI
   Lucas Lang             : DCDCAS
   Marvin Lechner         : AUTO-CI (C++ implementation), FIC-MRCC
   Dagmar Lenk            : GEPOL surface, SMD
   Dimitrios Liakos       : Extrapolation schemes; Compound Job, initial MDCI parallelization
   Dimitrios Manganas     : Further ROCIS development; embedding schemes
   Dimitrios Pantazis     : SARC Basis sets
   Anastasios Papadopoulos: AUTO-CI, single reference methods and gradients
   Taras Petrenko         : DFT Hessian,TD-DFT gradient, ASA, ECA, R-Raman, ABS, FL, XAS/XES, NRVS
   Peter Pinski           : DLPNO-MP2, DLPNO-MP2 Gradient
   Christoph Reimann      : Effective Core Potentials
   Marius Retegan         : Local ZFS, SOC
   Christoph Riplinger    : Optimizer, TS searches, QM/MM, DLPNO-CCSD(T), (RO)-DLPNO pert. Triples
   Tobias Risthaus        : Range-separated hybrids, TD-DFT gradient, RPA, STAB
   Michael Roemelt        : Original ROCIS implementation
   Masaaki Saitow         : Open-shell DLPNO-CCSD energy and density
   Barbara Sandhoefer     : DKH picture change effects
   Avijit Sen             : IP-ROCIS
   Kantharuban Sivalingam : CASSCF convergence, NEVPT2, FIC-MRCI
   Bernardo de Souza      : ESD, SOC TD-DFT
   Georgi Stoychev        : AutoAux, RI-MP2 NMR, DLPNO-MP2 response
   Willem Van den Heuvel  : Paramagnetic NMR
   Boris Wezisla          : Elementary symmetry handling
   Frank Wennmohs         : Technical directorship


 We gratefully acknowledge several colleagues who have allowed us to
 interface, adapt or use parts of their codes:
   Stefan Grimme, W. Hujo, H. Kruse, P. Pracht,  : VdW corrections, initial TS optimization,
                  C. Bannwarth, S. Ehlert          DFT functionals, gCP, sTDA/sTD-DF
   Ed Valeev, F. Pavosevic, A. Kumar             : LibInt (2-el integral package), F12 methods
   Garnet Chan, S. Sharma, J. Yang, R. Olivares  : DMRG
   Ulf Ekstrom                                   : XCFun DFT Library
   Mihaly Kallay                                 : mrcc  (arbitrary order and MRCC methods)
   Jiri Pittner, Ondrej Demel                    : Mk-CCSD
   Frank Weinhold                                : gennbo (NPA and NBO analysis)
   Christopher J. Cramer and Donald G. Truhlar   : smd solvation model
   Lars Goerigk                                  : TD-DFT with DH, B97 family of functionals
   V. Asgeirsson, H. Jonsson                     : NEB implementation
   FAccTs GmbH                                   : IRC, NEB, NEB-TS, DLPNO-Multilevel, CI-OPT
                                                   MM, QMMM, 2- and 3-layer-ONIOM, Crystal-QMMM,
                                                   LR-CPCM, SF, NACMEs, symmetry and pop. for TD-DFT,
                                                   nearIR, NL-DFT gradient (VV10), updates on ESD,
                                                   ML-optimized integration grids
   S Lehtola, MJT Oliveira, MAL Marques          : LibXC Library
   Liviu Ungur et al                             : ANISO software


 Your calculation uses the libint2 library for the computation of 2-el integrals
 For citations please refer to: http://libint.valeyev.net

 Your ORCA version has been built with support for libXC version: 5.1.0
 For citations please refer to: https://tddft.org/programs/libxc/

 This ORCA versions uses:
   CBLAS   interface :  Fast vector & matrix operations
   LAPACKE interface :  Fast linear algebra routines
   SCALAPACK package :  Parallel linear algebra routines
   Shared memory     :  Shared parallel matrices
   BLAS/LAPACK       :  OpenBLAS 0.3.15  USE64BITINT DYNAMIC_ARCH NO_AFFINITY Zen SINGLE_THREADED
        Core in use  :  Zen
   Copyright (c) 2011-2014, The OpenBLAS Project




***************************************
The coordinates will be read from file: geo.xyz
***************************************


================================================================================

----- Orbital basis set information -----
Your calculation utilizes the basis: DKH-def2-TZVPP
   Exponents from def2-TZVPP [F. Weigend and R. Ahlrichs, Phys. Chem. Chem. Phys. 7, 3297 (2005)],
   recontracted for DKH2 by D. A. Pantazis.

----- AuxJ basis set information -----
Your calculation utilizes the AutoAux generation procedure.
  G. L. Stoychev, A. A. Auer, F. Neese, J. Chem. Theory Comput. 13, 554 (2017)

----- AuxC basis set information -----
Your calculation utilizes the AutoAux generation procedure.
  G. L. Stoychev, A. A. Auer, F. Neese, J. Chem. Theory Comput. 13, 554 (2017)

----- AuxJK basis set information -----
Your calculation utilizes the AutoAux generation procedure.
  G. L. Stoychev, A. A. Auer, F. Neese, J. Chem. Theory Comput. 13, 554 (2017)

================================================================================
                                        WARNINGS
                       Please study these warnings very carefully!
================================================================================


INFO   : the flag for use of the SHARK integral package has been found!

================================================================================
                                       INPUT FILE
================================================================================
NAME = rho.inp
|  1> !CASSCF  DKH DKH-def2-TZVPP  RIJCOSX NoSFitting VeryTightSCF autoaux moread SlowConv
|  2> %moinp "orb.gbw"
|  3> %pal
|  4> nprocs 10
|  5> end
|  6> %maxcore 4000
|  7> # swap
|  8> %scf
|  9>  Rotate
| 10>   { 28, 26 }
| 11>   { 27, 25 }
| 12>  end
| 13> end
| 14> #
| 15> %rel
| 16>  picturechange 2
| 17> end
| 18> %casscf
| 19>  nel  7
| 20>  norb 5
| 21>  mult 4,2
| 22>  nroots 10,40
| 23>  maxiter 100
| 24>  ActOrbs dOrbs
| 25>  rel
| 26>   printlevel 3
| 27>   dosoc true
| 28>   gtensor true
| 29>   quad true
| 30>  end
| 31> end
| 32> * xyzfile 0 4 geo.xyz *
| 33> 
| 34>                          ****END OF INPUT****
================================================================================

                       ****************************
                       * Single Point Calculation *
                       ****************************

---------------------------------
CARTESIAN COORDINATES (ANGSTROEM)
---------------------------------
  Co     0.026789   -0.185098   -1.251763
  C      1.830419    0.146382   -0.528563
  C      2.241548   -0.805257    0.594081
  H      2.550591    0.122356   -1.365622
  H      1.780327    1.192260   -0.169539
  H      3.214418   -0.532110    1.039920
  H      1.508605   -0.807886    1.414962
  H      2.334251   -1.840895    0.235426
  C     -1.813322   -0.304783   -0.554588
  C     -2.255784    0.922150    0.241654
  H     -2.494521   -0.507881   -1.399747
  H     -1.798097   -1.211161    0.080350
  H     -3.249958    0.786611    0.703360
  H     -1.556762    1.150112    1.060489
  H     -2.318503    1.818045   -0.393383

----------------------------
CARTESIAN COORDINATES (A.U.)
----------------------------
  NO LB      ZA    FRAG     MASS         X           Y           Z
   0 Co   27.0000    0    58.930    0.050623   -0.349785   -2.365489
   1 C     6.0000    0    12.011    3.458991    0.276622   -0.998840
   2 C     6.0000    0    12.011    4.235913   -1.521714    1.122650
   3 H     1.0000    0     1.008    4.819918    0.231218   -2.580653
   4 H     1.0000    0     1.008    3.364331    2.253044   -0.320382
   5 H     1.0000    0     1.008    6.074369   -1.005541    1.965165
   6 H     1.0000    0     1.008    2.850850   -1.526683    2.673891
   7 H     1.0000    0     1.008    4.411095   -3.478788    0.444891
   8 C     6.0000    0    12.011   -3.426683   -0.575957   -1.048019
   9 C     6.0000    0    12.011   -4.262814    1.742611    0.456659
  10 H     1.0000    0     1.008   -4.713962   -0.959756   -2.645139
  11 H     1.0000    0     1.008   -3.397911   -2.288762    0.151839
  12 H     1.0000    0     1.008   -6.141530    1.486479    1.329158
  13 H     1.0000    0     1.008   -2.941854    2.173397    2.004034
  14 H     1.0000    0     1.008   -4.381335    3.435607   -0.743385

--------------------------------
INTERNAL COORDINATES (ANGSTROEM)
--------------------------------
 Co     0   0   0     0.000000000000     0.00000000     0.00000000
 C      1   0   0     1.971288788242     0.00000000     0.00000000
 C      2   1   0     1.528061994733   114.26634807     0.00000000
 H      2   1   3     1.104487370963   108.35418541   125.07533862
 H      2   1   3     1.106918339338   103.67817815   238.75191072
 H      3   2   1     1.104471279296   112.30545930   185.44514688
 H      3   2   1     1.100481668360   111.73512867   305.21425363
 H      3   2   1     1.099897607040   111.68484990    65.39575426
 C      1   2   3     1.971391870684   137.26402138    55.73143097
 C      9   1   2     1.528115424732   113.94074035    54.59906733
 H      9   1   2     1.104343882975   108.43791322   179.50651101
 H      9   1   2     1.106751069103   103.87259157   293.38085830
 H     10   9   1     1.104502144570   112.32816823   185.68119178
 H     10   9   1     1.100495492657   111.72190618   305.45526285
 H     10   9   1     1.099923964232   111.69404209    65.63098383

---------------------------
INTERNAL COORDINATES (A.U.)
---------------------------
 Co     0   0   0     0.000000000000     0.00000000     0.00000000
 C      1   0   0     3.725195940647     0.00000000     0.00000000
 C      2   1   0     2.887618685699   114.26634807     0.00000000
 H      2   1   3     2.087178649495   108.35418541   125.07533862
 H      2   1   3     2.091772513964   103.67817815   238.75191072
 H      3   2   1     2.087148240652   112.30545930   185.44514688
 H      3   2   1     2.079608968601   111.73512867   305.21425363
 H      3   2   1     2.078505252660   111.68484990    65.39575426
 C      1   2   3     3.725390738231   137.26402138    55.73143097
 C      9   1   2     2.887719653765   113.94074035    54.59906733
 H      9   1   2     2.086907496493   108.43791322   179.50651101
 H      9   1   2     2.091456419030   103.87259157   293.38085830
 H     10   9   1     2.087206567566   112.32816823   185.68119178
 H     10   9   1     2.079635092737   111.72190618   305.45526285
 H     10   9   1     2.078555060535   111.69404209    65.63098383

---------------------
BASIS SET INFORMATION
---------------------
There are 3 groups of distinct atoms

 Group   1 Type Co  : 17s12p7d2f1g contracted to 10s7p4d2f1g pattern {8111111111/6111111/4111/11/1}
 Group   2 Type C   : 11s6p2d1f contracted to 6s3p2d1f pattern {611111/411/11/1}
 Group   3 Type H   : 5s2p1d contracted to 3s2p1d pattern {311/11/1}

Atom   0Co   basis set group =>   1
Atom   1C    basis set group =>   2
Atom   2C    basis set group =>   2
Atom   3H    basis set group =>   3
Atom   4H    basis set group =>   3
Atom   5H    basis set group =>   3
Atom   6H    basis set group =>   3
Atom   7H    basis set group =>   3
Atom   8C    basis set group =>   2
Atom   9C    basis set group =>   2
Atom  10H    basis set group =>   3
Atom  11H    basis set group =>   3
Atom  12H    basis set group =>   3
Atom  13H    basis set group =>   3
Atom  14H    basis set group =>   3
---------------------------------
AUXILIARY/J BASIS SET INFORMATION
---------------------------------
There are 3 groups of distinct atoms

 Group   1 Type Co  : 22s18p17d17f16g6h3i contracted to 22s18p17d17f16g6h3i pattern {1111111111111111111111/111111111111111111/11111111111111111/11111111111111111/1111111111111111/111111/111}
 Group   2 Type C   : 16s13p12d7f3g contracted to 16s13p12d7f3g pattern {1111111111111111/1111111111111/111111111111/1111111/111}
 Group   3 Type H   : 11s4p3d2f contracted to 11s4p3d2f pattern {11111111111/1111/111/11}

Atom   0Co   basis set group =>   1
Atom   1C    basis set group =>   2
Atom   2C    basis set group =>   2
Atom   3H    basis set group =>   3
Atom   4H    basis set group =>   3
Atom   5H    basis set group =>   3
Atom   6H    basis set group =>   3
Atom   7H    basis set group =>   3
Atom   8C    basis set group =>   2
Atom   9C    basis set group =>   2
Atom  10H    basis set group =>   3
Atom  11H    basis set group =>   3
Atom  12H    basis set group =>   3
Atom  13H    basis set group =>   3
Atom  14H    basis set group =>   3
---------------------------------
AUXILIARY/C BASIS SET INFORMATION
---------------------------------
There are 3 groups of distinct atoms

 Group   1 Type Co  : 22s18p17d17f16g6h3i contracted to 22s18p17d17f16g6h3i pattern {1111111111111111111111/111111111111111111/11111111111111111/11111111111111111/1111111111111111/111111/111}
 Group   2 Type C   : 16s13p12d7f3g contracted to 16s13p12d7f3g pattern {1111111111111111/1111111111111/111111111111/1111111/111}
 Group   3 Type H   : 11s4p3d2f contracted to 11s4p3d2f pattern {11111111111/1111/111/11}

Atom   0Co   basis set group =>   1
Atom   1C    basis set group =>   2
Atom   2C    basis set group =>   2
Atom   3H    basis set group =>   3
Atom   4H    basis set group =>   3
Atom   5H    basis set group =>   3
Atom   6H    basis set group =>   3
Atom   7H    basis set group =>   3
Atom   8C    basis set group =>   2
Atom   9C    basis set group =>   2
Atom  10H    basis set group =>   3
Atom  11H    basis set group =>   3
Atom  12H    basis set group =>   3
Atom  13H    basis set group =>   3
Atom  14H    basis set group =>   3
----------------------------------
AUXILIARY/JK BASIS SET INFORMATION
----------------------------------
There are 3 groups of distinct atoms

 Group   1 Type Co  : 22s18p17d17f16g6h3i contracted to 22s18p17d17f16g6h3i pattern {1111111111111111111111/111111111111111111/11111111111111111/11111111111111111/1111111111111111/111111/111}
 Group   2 Type C   : 16s13p12d7f3g contracted to 16s13p12d7f3g pattern {1111111111111111/1111111111111/111111111111/1111111/111}
 Group   3 Type H   : 11s4p3d2f contracted to 11s4p3d2f pattern {11111111111/1111/111/11}

Atom   0Co   basis set group =>   1
Atom   1C    basis set group =>   2
Atom   2C    basis set group =>   2
Atom   3H    basis set group =>   3
Atom   4H    basis set group =>   3
Atom   5H    basis set group =>   3
Atom   6H    basis set group =>   3
Atom   7H    basis set group =>   3
Atom   8C    basis set group =>   2
Atom   9C    basis set group =>   2
Atom  10H    basis set group =>   3
Atom  11H    basis set group =>   3
Atom  12H    basis set group =>   3
Atom  13H    basis set group =>   3
Atom  14H    basis set group =>   3


           ************************************************************
           *        Program running with 10 parallel MPI-processes    *
           *              working on a common directory               *
           ************************************************************
------------------------------------------------------------------------------
                           ORCA GTO INTEGRAL CALCULATION
                           -- RI-GTO INTEGRALS CHOSEN --
------------------------------------------------------------------------------
------------------------------------------------------------------------------
                   ___                                                        
                  /   \      - P O W E R E D   B Y -                         
                 /     \                                                     
                 |  |  |   _    _      __       _____    __    __             
                 |  |  |  | |  | |    /  \     |  _  \  |  |  /  |          
                  \  \/   | |  | |   /    \    | | | |  |  | /  /          
                 / \  \   | |__| |  /  /\  \   | |_| |  |  |/  /          
                |  |  |   |  __  | /  /__\  \  |    /   |      \           
                |  |  |   | |  | | |   __   |  |    \   |  |\   \          
                \     /   | |  | | |  |  |  |  | |\  \  |  | \   \       
                 \___/    |_|  |_| |__|  |__|  |_| \__\ |__|  \__/        
                                                                              
                      - O R C A' S   B I G   F R I E N D -                    
                                      &                                       
                       - I N T E G R A L  F E E D E R -                       
                                                                              
 v1 FN, 2020, v2 2021                                                         
------------------------------------------------------------------------------


Reading SHARK input file rho.SHARKINP.tmp ... ok
----------------------
SHARK INTEGRAL PACKAGE
----------------------

Number of atoms                             ...     15
Number of basis functions                   ...    342
Number of shells                            ...    132
Maximum angular momentum                    ...      4
Integral batch strategy                     ... SHARK/LIBINT Hybrid
RI-J (if used) integral strategy            ... SPLIT-RIJ (Revised 2003 algorithm where possible)
Printlevel                                  ...      1
Contraction scheme used                     ... SEGMENTED contraction
Coulomb Range Separation                    ... NOT USED
Exchange Range Separation                   ... NOT USED
Finite Nucleus Model                        ... NOT USED
Auxiliary Coulomb fitting basis             ... AVAILABLE
   # of basis functions in Aux-J            ...   1813
   # of shells in Aux-J                     ...    503
   Maximum angular momentum in Aux-J        ...      6
Auxiliary J/K fitting basis                 ... AVAILABLE
   # of basis functions in Aux-JK           ...   1813
   # of shells in Aux-JK                    ...    503
   Maximum angular momentum in Aux-JK       ...      6
Auxiliary Correlation fitting basis         ... AVAILABLE
   # of basis functions in Aux-C            ...   1813
   # of shells in Aux-C                     ...    503
   Maximum angular momentum in Aux-C        ...      6
Auxiliary 'external' fitting basis          ... NOT available
Integral threshold                          ...     1.000000e-12
Primitive cut-off                           ...     1.000000e-14
Primitive pair pre-selection threshold      ...     1.000000e-14

Calculating pre-screening integrals         ... done (  0.1 sec) Dimension = 132
Organizing shell pair data                  ... done (  0.1 sec)
Shell pair information
Total number of shell pairs                 ...      8778
Shell pairs after pre-screening             ...      7788
Total number of primitive shell pairs       ...     20063
Primitive shell pairs kept                  ...     14431
          la=0 lb=0:   1800 shell pairs
          la=1 lb=0:   2216 shell pairs
          la=1 lb=1:    714 shell pairs
          la=2 lb=0:   1225 shell pairs
          la=2 lb=1:    774 shell pairs
          la=2 lb=2:    223 shell pairs
          la=3 lb=0:    348 shell pairs
          la=3 lb=1:    224 shell pairs
          la=3 lb=2:    122 shell pairs
          la=3 lb=3:     21 shell pairs
          la=4 lb=0:     56 shell pairs
          la=4 lb=1:     37 shell pairs
          la=4 lb=2:     21 shell pairs
          la=4 lb=3:      6 shell pairs
          la=4 lb=4:      1 shell pairs

Calculating one electron integrals          ... done (  0.0 sec)
Calculating RI/J V-Matrix + Cholesky decomp.... done (  0.3 sec)
Calculating RI/JK V-Matrix + Cholesky decomp... done (  0.2 sec)
Calculating RI/C V-Matrix + Cholesky decomp.... done (  0.2 sec)
Calculating Nuclear repulsion               ... done (  0.0 sec) ENN=    300.894314370511 Eh

SHARK setup successfully completed in   1.1 seconds

Maximum memory used throughout the entire GTOINT-calculation: 41.5 MB


           ************************************************************
           *        Program running with 10 parallel MPI-processes    *
           *              working on a common directory               *
           ************************************************************
------------------------------------------------------------------------------
                          ORCA RELATIVISTIC HAMILTONIAN
------------------------------------------------------------------------------

Relativistic Method            ... DKH
Order of DKH treatment         ...   2
Treatment of potential         ... V(e,N)
Eps parameter for DKH          ...   0.00000000010000
Nucleus model                  ... Point Nucleus
Speed of light used            ... 137.03598950000000


            ************************************************
            *        DOUGLAS-KROLL-HESS HAMILTONIAN        *
            *   Programmed by FN according to literature   *
            *        procedures. Special thanks to         *
            *       B.A. Hess, M. Reiher and A. Wolf       *
            *     University Erlangen-Nuernberg/Bonn       *
            ************************************************

Uncontracting the basis (first version)        ... done
Number of contracted basis functions           ...  342
Number of uncontracted basis functions         ...  455
Initializing the DKH file                      ... done
Calculating the relativistic integrals         ... done
Storing DKH matrices                           ... done
Code used for DKH trafo                        ... ORCA
Computing the DKH transformation               ... done
Storing the transformation variables           ... done
Transforming V and pVp to p**2 space           ... done
First transformation of V and pVp              ... done
Second transformation of Veff                  ... done
Adding kinetic energy                          ... done
Back transformation of Veff to r-space         ... done
Recovering DKH matrices                        ... done
Recontracting the H-matrix (first version)     ... done
Computing the DKH correction to the H-matrix   ... done
Reading the original H-matrix                  ... done
Adding DKH correction to the H-matrix          ... done
Storing the new modified H-matrix              ... done

Maximum memory used throughout the entire REL-calculation: 72.3 MB


           ************************************************************
           *        Program running with 10 parallel MPI-processes    *
           *              working on a common directory               *
           ************************************************************
-------------------------------------------------------------------------------
                                 ORCA SCF
-------------------------------------------------------------------------------

------------
SCF SETTINGS
------------
Hamiltonian:
 Ab initio Hamiltonian  Method          .... Hartree-Fock(GTOs)
 RI-approximation to the Coulomb term is turned on
   Number of AuxJ basis functions       .... 1813
   RIJ-COSX (HFX calculated with COS-X)).... on

Relativistic Settings:
 Scalar relativistic method             .... Douglas-Kroll-Hess
 Order of DKH procedure    Order        ....    2
 Mode of DKH-treatment                  .... V=V(e,N)
 Speed of light used       Velit        ....       137.035989
 Cutoff-constant           Eps          ....            1e-10 


General Settings:
 Integral files         IntName         .... rho
 Hartree-Fock type      HFTyp           .... CASSCF
 Total Charge           Charge          ....    0
 Multiplicity           Mult            ....    4
 Number of Electrons    NEL             ....   61
 Basis Dimension        Dim             ....  342
 Nuclear Repulsion      ENuc            ....    300.8943143705 Eh


Diagonalization of the overlap matrix:
Smallest eigenvalue                        ... 2.577e-04
Time for diagonalization                   ...    0.028 sec
Threshold for overlap eigenvalues          ... 1.000e-08
Number of eigenvalues below threshold      ... 0
Time for construction of square roots      ...    0.020 sec
Total time needed                          ...    0.049 sec

---------------------
INITIAL GUESS: MOREAD
---------------------
Guess MOs are being read from file: orb.gbw
Input Geometry matches current geometry (good)
Atom 0: N(Shells)= 24 and 18 - projection required
Input basis set needs projection
NBasis(read)= 328
NBasis(calc)= 342
Basis set overlap was calculated
Using GuessMode=CMatrix for the initial guess
Initial orthogonal set was formed
CASSCF - fitting 2 shells:
   closed-shell contains  27 orbitals (  0 ...  26)
   active space contains   5 orbitals ( 27 ...  31)
Virtual orbitals were projected
Gram-Schmidt orthogonalization of all MOs with pivot on actives
-----------------
ORBITAL ROTATIONS
-----------------
  Rotation  28(0)   26(0) cos(t)= 0.000000  sin(t)= 1.000000
  Orbital Energies were swapped
  Rotation  27(0)   25(0) cos(t)= 0.000000  sin(t)= 1.000000
  Orbital Energies were swapped
Initial density was built
Canonicalizing active space vectors CAS(7,5) {27-31} C(342,342) Cact Ract BOVL(328,342) COVL Diag BackTrafo Restore
Active space vectors have been canonicalized
                      ------------------
                      INITIAL GUESS DONE (   0.5 sec)
                      ------------------
--------------------
COSX GRID GENERATION
--------------------

GRIDX 1
-------
General Integration Accuracy     IntAcc      ... 3.816
Radial Grid Type                 RadialGrid  ... OptM3 with GC (2021)
Angular Grid (max. ang.)         AngularGrid ... 1 (Lebedev-50)
Angular grid pruning method      GridPruning ... 4 (adaptive)
Weight generation scheme         WeightScheme... Becke
Basis function cutoff            BFCut       ... 1.0000e-12
Integration weight cutoff        WCut        ... 1.0000e-14
Angular grids for H and He will be reduced by one unit
Partially contracted basis set               ... on
Rotationally invariant grid construction     ... off

Total number of grid points                  ...     8510
Total number of batches                      ...      141
Average number of points per batch           ...       60
Average number of grid points per atom       ...      567

GRIDX 2
-------
General Integration Accuracy     IntAcc      ... 4.020
Radial Grid Type                 RadialGrid  ... OptM3 with GC (2021)
Angular Grid (max. ang.)         AngularGrid ... 2 (Lebedev-110)
Angular grid pruning method      GridPruning ... 4 (adaptive)
Weight generation scheme         WeightScheme... Becke
Basis function cutoff            BFCut       ... 1.0000e-12
Integration weight cutoff        WCut        ... 1.0000e-14
Angular grids for H and He will be reduced by one unit
Partially contracted basis set               ... on
Rotationally invariant grid construction     ... off

Total number of grid points                  ...    17619
Total number of batches                      ...      284
Average number of points per batch           ...       62
Average number of grid points per atom       ...     1175

GRIDX 3
-------
General Integration Accuracy     IntAcc      ... 4.338
Radial Grid Type                 RadialGrid  ... OptM3 with GC (2021)
Angular Grid (max. ang.)         AngularGrid ... 3 (Lebedev-194)
Angular grid pruning method      GridPruning ... 4 (adaptive)
Weight generation scheme         WeightScheme... Becke
Basis function cutoff            BFCut       ... 1.0000e-12
Integration weight cutoff        WCut        ... 1.0000e-14
Angular grids for H and He will be reduced by one unit
Partially contracted basis set               ... on
Rotationally invariant grid construction     ... off

Total number of grid points                  ...    38623
Total number of batches                      ...      612
Average number of points per batch           ...       63
Average number of grid points per atom       ...     2575

Time for X-Grid setup             =    0.256 sec



 ... the calculation is a CASSCF calculation -I'm leaving here GOOD LUCK!!!



           ************************************************************
           *        Program running with 10 parallel MPI-processes    *
           *              working on a common directory               *
           ************************************************************
-------------------------------------------------------------------------------
                              ORCA-CASSCF
-------------------------------------------------------------------------------

Setting up the integral package       ... done
Setting up the integral package (RI)  ... done
Building the CAS space                ... done (10 configurations for Mult=4)
Building the CAS space                ... done (30 configurations for Mult=2)

SYSTEM-SPECIFIC SETTINGS:
Number of active electrons          ...    7
Number of active orbitals           ...    5
Total number of electrons           ...   61
Total number of orbitals            ...  342
Total number aux. functions         ... 1813

Determined orbital ranges:
   Internal       0 -   26 (  27 orbitals)
   Active        27 -   31 (   5 orbitals)
   External      32 -  341 ( 310 orbitals)
Number of rotation parameters      ...  10055

CI-STEP:
CI strategy                         ... General CI
Number of multiplicity blocks       ...    2
BLOCK  1 WEIGHT=   0.5000
  Multiplicity                      ...    4
  #(Configurations)                 ...   10
  #(CSFs)                           ...   10
  #(Roots)                          ...   10
    ROOT=0 WEIGHT=    0.050000
    ROOT=1 WEIGHT=    0.050000
    ROOT=2 WEIGHT=    0.050000
    ROOT=3 WEIGHT=    0.050000
    ROOT=4 WEIGHT=    0.050000
    ROOT=5 WEIGHT=    0.050000
    ROOT=6 WEIGHT=    0.050000
    ROOT=7 WEIGHT=    0.050000
    ROOT=8 WEIGHT=    0.050000
    ROOT=9 WEIGHT=    0.050000

BLOCK  2 WEIGHT=   0.5000
  Multiplicity                      ...    2
  #(Configurations)                 ...   30
  #(CSFs)                           ...   40
  #(Roots)                          ...   40
    ROOT=0 WEIGHT=    0.012500
    ROOT=1 WEIGHT=    0.012500
    ROOT=2 WEIGHT=    0.012500
    ROOT=3 WEIGHT=    0.012500
    ROOT=4 WEIGHT=    0.012500
    ROOT=5 WEIGHT=    0.012500
    ROOT=6 WEIGHT=    0.012500
    ROOT=7 WEIGHT=    0.012500
    ROOT=8 WEIGHT=    0.012500
    ROOT=9 WEIGHT=    0.012500
    ROOT=10 WEIGHT=    0.012500
    ROOT=11 WEIGHT=    0.012500
    ROOT=12 WEIGHT=    0.012500
    ROOT=13 WEIGHT=    0.012500
    ROOT=14 WEIGHT=    0.012500
    ROOT=15 WEIGHT=    0.012500
    ROOT=16 WEIGHT=    0.012500
    ROOT=17 WEIGHT=    0.012500
    ROOT=18 WEIGHT=    0.012500
    ROOT=19 WEIGHT=    0.012500
    ROOT=20 WEIGHT=    0.012500
    ROOT=21 WEIGHT=    0.012500
    ROOT=22 WEIGHT=    0.012500
    ROOT=23 WEIGHT=    0.012500
    ROOT=24 WEIGHT=    0.012500
    ROOT=25 WEIGHT=    0.012500
    ROOT=26 WEIGHT=    0.012500
    ROOT=27 WEIGHT=    0.012500
    ROOT=28 WEIGHT=    0.012500
    ROOT=29 WEIGHT=    0.012500
    ROOT=30 WEIGHT=    0.012500
    ROOT=31 WEIGHT=    0.012500
    ROOT=32 WEIGHT=    0.012500
    ROOT=33 WEIGHT=    0.012500
    ROOT=34 WEIGHT=    0.012500
    ROOT=35 WEIGHT=    0.012500
    ROOT=36 WEIGHT=    0.012500
    ROOT=37 WEIGHT=    0.012500
    ROOT=38 WEIGHT=    0.012500
    ROOT=39 WEIGHT=    0.012500

  PrintLevel                        ...    1
  N(GuessMat)                       ...       512
  MaxDim(CI)                        ...        10
  MaxIter(CI)                       ...        64
  Energy Tolerance CI               ...  1.00e-09
  Residual Tolerance CI             ...  1.00e-09
  Shift(CI)                         ...  1.00e-04

INTEGRAL-TRANSFORMATION-STEP:
  Algorithm                         ... RI-MO

ORBITAL-IMPROVEMENT-STEP:
  Algorithm                         ... SuperCI
  Default Parametrization           ... CAYLEY
  Act-Act rotations                 ... depends on algorithm used
  FreezeIE                          ... 95.00% of ||g||
  Until reaching FreezeIE rotations with active orbitals are damped. 

  Approx. Fock at                   ... 0.000000e+00 density convergence
  Level shift                       ... energy gap dependent. Minimum=1.000
  Switch step at gradient           ...  3.00e-02 
  Switch step at iteration          ...        50   
  Switch step to                    ... DIIS    

SCF-SETTINGS:
  Incremental                       ... off
  RIJCOSX approximation             ... on
  UseFinalGrid                      ... on
  RI-JK approximation               ... off
  AO integral handling              ... DIRECT
  Integral Neglect Thresh           ...  1.00e-12
  Primitive cutoff TCut             ...  1.00e-14
  Energy convergence tolerance      ...  1.00e-08
  Orbital gradient convergence      ...  1.00e-05
  Max. number of iterations         ...       100  


PROPERTIES-SETTINGS:
  Spin orbit coupling               ... true
  GTensor                           ... true

FINAL ORBITALS:
  Active   Orbitals                 ... d-orbitals 
  Internal Orbitals                 ... canonical 
  External Orbitals                 ... canonical 

------------------
CAS-SCF ITERATIONS
------------------


MACRO-ITERATION   1: 
   --- Canonicalize Internal Space
   --- Canonicalize External Space
   --- Inactive Energy E0 = -1529.78970761 Eh
CI-ITERATION   0: 
 -1548.019721879   0.000000000000 (    0.00)
 -1548.019351649   0.000000000000
 -1548.015176037   0.000000000000
 -1548.008274872   0.000000000000
 -1547.998235638   0.000000000000
 -1547.992152199   0.000000000000
 -1547.989897538   0.000000000000
 -1547.963061618   0.000000000000
 -1547.951878350   0.000000000000
 -1547.918979202   0.000000000000
   CI-PROBLEM SOLVED
   DENSITIES MADE
CI-ITERATION   0: 
 -1547.984298554   0.000000000000 (    0.00)
 -1547.983788018   0.000000000000
 -1547.978677786   0.000000000000
 -1547.972385579   0.000000000000
 -1547.949257641   0.000000000000
 -1547.946579425   0.000000000000
 -1547.943733811   0.000000000000
 -1547.942574530   0.000000000000
 -1547.940263097   0.000000000000
 -1547.940111737   0.000000000000
 -1547.931394294   0.000000000000
 -1547.931089186   0.000000000000
 -1547.927585913   0.000000000000
 -1547.926922889   0.000000000000
 -1547.923946889   0.000000000000
 -1547.923203442   0.000000000000
 -1547.915235172   0.000000000000
 -1547.913836942   0.000000000000
 -1547.913086466   0.000000000000
 -1547.909457099   0.000000000000
 -1547.904196403   0.000000000000
 -1547.903968721   0.000000000000
 -1547.898920030   0.000000000000
 -1547.889403391   0.000000000000
 -1547.887172636   0.000000000000
 -1547.871484620   0.000000000000
 -1547.867070572   0.000000000000
 -1547.845100241   0.000000000000
 -1547.844057549   0.000000000000
 -1547.844021923   0.000000000000
 -1547.835595012   0.000000000000
 -1547.802896054   0.000000000000
 -1547.802577407   0.000000000000
 -1547.797601369   0.000000000000
 -1547.788131365   0.000000000000
 -1547.785945478   0.000000000000
 -1547.754693273   0.000000000000
 -1547.736242716   0.000000000000
 -1547.728133720   0.000000000000
 -1547.725643246   0.000000000000
   CI-PROBLEM SOLVED
   DENSITIES MADE

                 <<<<<<<<<<<<<<<<<<INITIAL CI STATE CHECK>>>>>>>>>>>>>>>>>>

BLOCK  1 MULT= 4 NROOTS=10 
ROOT   0:  E=   -1548.0197218792 Eh
      0.39077 [     2]: 11221
      0.28381 [     7]: 21121
      0.20713 [     4]: 12121
      0.05556 [     1]: 11212
      0.03836 [     8]: 21211
      0.01214 [     5]: 12211
      0.00775 [     9]: 22111
      0.00295 [     6]: 21112
ROOT   1:  E=   -1548.0193516487 Eh  0.010 eV     81.3 cm**-1
      0.90260 [     0]: 11122
      0.03760 [     5]: 12211
      0.01908 [     8]: 21211
      0.01535 [     4]: 12121
      0.01534 [     7]: 21121
      0.00410 [     2]: 11221
      0.00341 [     9]: 22111
ROOT   2:  E=   -1548.0151760373 Eh  0.124 eV    997.7 cm**-1
      0.44545 [     8]: 21211
      0.34402 [     9]: 22111
      0.10792 [     5]: 12211
      0.04924 [     2]: 11221
      0.04786 [     1]: 11212
      0.00352 [     7]: 21121
ROOT   3:  E=   -1548.0082748719 Eh  0.311 eV   2512.3 cm**-1
      0.55164 [     6]: 21112
      0.31176 [     3]: 12112
      0.04883 [     1]: 11212
      0.04100 [     7]: 21121
      0.02337 [     4]: 12121
      0.01416 [     0]: 11122
      0.00370 [     2]: 11221
      0.00293 [     5]: 12211
      0.00252 [     8]: 21211
ROOT   4:  E=   -1547.9982356383 Eh  0.585 eV   4715.7 cm**-1
      0.42997 [     5]: 12211
      0.23891 [     8]: 21211
      0.10214 [     7]: 21121
      0.08113 [     0]: 11122
      0.05754 [     4]: 12121
      0.03657 [     9]: 22111
      0.02774 [     6]: 21112
      0.01500 [     3]: 12112
      0.00871 [     2]: 11221
ROOT   5:  E=   -1547.9921521994 Eh  0.750 eV   6050.8 cm**-1
      0.39771 [     1]: 11212
      0.30270 [     9]: 22111
      0.13235 [     3]: 12112
      0.06526 [     5]: 12211
      0.05099 [     4]: 12121
      0.02480 [     7]: 21121
      0.01525 [     8]: 21211
      0.00701 [     6]: 21112
      0.00393 [     2]: 11221
ROOT   6:  E=   -1547.9898975383 Eh  0.812 eV   6545.7 cm**-1
      0.33241 [     4]: 12121
      0.30628 [     2]: 11221
      0.15199 [     3]: 12112
      0.09555 [     6]: 21112
      0.07259 [     7]: 21121
      0.02187 [     8]: 21211
      0.01548 [     5]: 12211
ROOT   7:  E=   -1547.9630616179 Eh  1.542 eV  12435.5 cm**-1
      0.44188 [     7]: 21121
      0.24979 [     4]: 12121
      0.13849 [     5]: 12211
      0.07828 [     8]: 21211
      0.03815 [     2]: 11221
      0.02366 [     6]: 21112
      0.01464 [     3]: 12112
      0.01226 [     9]: 22111
ROOT   8:  E=   -1547.9518783500 Eh  1.846 eV  14889.9 cm**-1
      0.31721 [     1]: 11212
      0.24105 [     6]: 21112
      0.19354 [     2]: 11221
      0.18449 [     3]: 12112
      0.04331 [     4]: 12121
      0.00807 [     9]: 22111
      0.00666 [     5]: 12211
      0.00491 [     8]: 21211
ROOT   9:  E=   -1547.9189792020 Eh  2.741 eV  22110.5 cm**-1
      0.28375 [     9]: 22111
      0.18715 [     3]: 12112
      0.18355 [     5]: 12211
      0.13536 [     8]: 21211
      0.12621 [     1]: 11212
      0.04823 [     6]: 21112
      0.01998 [     4]: 12121
      0.01417 [     7]: 21121

BLOCK  2 MULT= 2 NROOTS=40 
ROOT   0:  E=   -1547.9842985539 Eh
      0.28447 [     4]: 10222
      0.27069 [     8]: 12022
      0.11096 [     5]: 11122
      0.07557 [     1]: 02122
      0.07390 [    14]: 20122
      0.06443 [     0]: 01222
      0.05997 [    17]: 21022
      0.00869 [    24]: 22021
      0.00696 [    19]: 21121
      0.00618 [    23]: 22012
      0.00612 [    16]: 20221
      0.00445 [     7]: 11221
      0.00426 [     9]: 12112
      0.00372 [    15]: 20212
      0.00355 [    18]: 21112
      0.00343 [    10]: 12121
      0.00313 [     2]: 02212
ROOT   1:  E=   -1547.9837880183 Eh  0.014 eV    112.0 cm**-1
      0.27816 [    10]: 12121
      0.21833 [     7]: 11221
      0.21676 [    16]: 20221
      0.10918 [    19]: 21121
      0.08551 [     3]: 02221
      0.02989 [    24]: 22021
      0.01626 [     6]: 11212
      0.01615 [    15]: 20212
      0.01042 [     2]: 02212
      0.00642 [     9]: 12112
      0.00386 [    26]: 22111
ROOT   2:  E=   -1547.9786777862 Eh  0.153 eV   1233.6 cm**-1
      0.46560 [    21]: 21211
      0.40391 [    26]: 22111
      0.10494 [    12]: 12211
      0.00303 [    15]: 20212
ROOT   3:  E=   -1547.9723855790 Eh  0.324 eV   2614.6 cm**-1
      0.30601 [    23]: 22012
      0.21752 [     6]: 11212
      0.14142 [    18]: 21112
      0.12181 [    15]: 20212
      0.06648 [     9]: 12112
      0.03915 [     2]: 02212
      0.03899 [    24]: 22021
      0.01444 [     4]: 10222
      0.01307 [    19]: 21121
      0.00722 [    10]: 12121
      0.00525 [     8]: 12022
      0.00514 [     0]: 01222
      0.00505 [     3]: 02221
      0.00426 [    16]: 20221
      0.00280 [     5]: 11122
      0.00259 [    12]: 12211
ROOT   4:  E=   -1547.9492576407 Eh  0.954 eV   7690.6 cm**-1
      0.25585 [     5]: 11122
      0.09994 [    22]: 21220
      0.08810 [    27]: 22120
      0.08548 [     4]: 10222
      0.07242 [     0]: 01222
      0.06223 [    21]: 21211
      0.06174 [     8]: 12022
      0.05672 [    26]: 22111
      0.05207 [    25]: 22102
      0.04198 [    17]: 21022
      0.03538 [    20]: 21202
      0.02174 [    13]: 12220
      0.01373 [    12]: 12211
      0.01092 [    10]: 12121
      0.00993 [     7]: 11221
      0.00660 [    19]: 21121
      0.00562 [    16]: 20221
      0.00529 [    11]: 12202
      0.00408 [     6]: 11212
      0.00254 [     3]: 02221
ROOT   5:  E=   -1547.9465794253 Eh  1.026 eV   8278.4 cm**-1
      0.24648 [     7]: 11221
      0.17337 [     3]: 02221
      0.11248 [    12]: 12211
      0.07147 [    10]: 12121
      0.06349 [    21]: 21211
      0.05596 [    16]: 20221
      0.04544 [    13]: 12220
      0.04523 [    18]: 21112
      0.03063 [     9]: 12112
      0.02469 [    22]: 21220
      0.02186 [     6]: 11212
      0.01343 [    11]: 12202
      0.01340 [    19]: 21121
      0.01271 [    24]: 22021
      0.01044 [     1]: 02122
      0.00958 [    26]: 22111
      0.00834 [    14]: 20122
      0.00809 [    29]: 22210
      0.00735 [    20]: 21202
      0.00651 [    17]: 21022
      0.00468 [     2]: 02212
      0.00439 [     5]: 11122
      0.00407 [    27]: 22120
ROOT   6:  E=   -1547.9437338114 Eh  1.104 eV   8902.9 cm**-1
      0.23836 [    24]: 22021
      0.19750 [     7]: 11221
      0.15820 [    19]: 21121
      0.07845 [     6]: 11212
      0.07453 [    10]: 12121
      0.06402 [    16]: 20221
      0.02824 [    17]: 21022
      0.02196 [     0]: 01222
      0.01956 [    12]: 12211
      0.01526 [     8]: 12022
      0.01484 [     5]: 11122
      0.01214 [     3]: 02221
      0.01176 [     1]: 02122
      0.01129 [    21]: 21211
      0.01127 [    15]: 20212
      0.01050 [    23]: 22012
      0.01037 [    14]: 20122
      0.00981 [    29]: 22210
      0.00836 [     4]: 10222
ROOT   7:  E=   -1547.9425745297 Eh  1.135 eV   9157.4 cm**-1
      0.19445 [    10]: 12121
      0.12932 [     0]: 01222
      0.11280 [    19]: 21121
      0.08316 [     1]: 02122
      0.07349 [     4]: 10222
      0.06599 [     5]: 11122
      0.06460 [    21]: 21211
      0.05583 [     6]: 11212
      0.04233 [     9]: 12112
      0.03117 [    12]: 12211
      0.02494 [     2]: 02212
      0.01758 [    15]: 20212
      0.01456 [    18]: 21112
      0.01434 [    27]: 22120
      0.01344 [    26]: 22111
      0.01242 [     7]: 11221
      0.01011 [    20]: 21202
      0.00859 [    24]: 22021
      0.00815 [    16]: 20221
      0.00676 [    17]: 21022
      0.00606 [    14]: 20122
      0.00455 [    11]: 12202
ROOT   8:  E=   -1547.9402630970 Eh  1.198 eV   9664.7 cm**-1
      0.17672 [    14]: 20122
      0.15879 [     1]: 02122
      0.14006 [     5]: 11122
      0.12124 [     0]: 01222
      0.09753 [    17]: 21022
      0.06605 [    19]: 21121
      0.04664 [    18]: 21112
      0.03329 [    10]: 12121
      0.02503 [    24]: 22021
      0.02422 [     9]: 12112
      0.01614 [    23]: 22012
      0.01372 [     3]: 02221
      0.01176 [     2]: 02212
      0.01057 [     4]: 10222
      0.01050 [    16]: 20221
      0.01001 [    29]: 22210
      0.00811 [    12]: 12211
      0.00693 [     6]: 11212
      0.00520 [    21]: 21211
      0.00485 [     8]: 12022
      0.00357 [    15]: 20212
      0.00294 [    28]: 22201
ROOT   9:  E=   -1547.9401117372 Eh  1.202 eV   9697.9 cm**-1
      0.31779 [     7]: 11221
      0.14112 [     5]: 11122
      0.06963 [    19]: 21121
      0.06702 [    26]: 22111
      0.05584 [    10]: 12121
      0.05309 [     1]: 02122
      0.04707 [    16]: 20221
      0.03942 [    21]: 21211
      0.03852 [     6]: 11212
      0.03026 [    20]: 21202
      0.02492 [     8]: 12022
      0.02091 [     3]: 02221
      0.01431 [    18]: 21112
      0.01254 [    11]: 12202
      0.01189 [     9]: 12112
      0.00921 [     0]: 01222
      0.00891 [    12]: 12211
      0.00860 [    15]: 20212
      0.00588 [     2]: 02212
      0.00564 [    27]: 22120
      0.00519 [    24]: 22021
      0.00431 [    17]: 21022
      0.00324 [    25]: 22102
ROOT  10:  E=   -1547.9313942944 Eh  1.440 eV  11611.1 cm**-1
      0.29071 [    26]: 22111
      0.22360 [    21]: 21211
      0.06553 [    20]: 21202
      0.05122 [     1]: 02122
      0.03746 [    12]: 12211
      0.03439 [     7]: 11221
      0.02919 [     3]: 02221
      0.02907 [     0]: 01222
      0.02710 [     9]: 12112
      0.02651 [    27]: 22120
      0.02433 [    11]: 12202
      0.02417 [    16]: 20221
      0.02212 [     4]: 10222
      0.02038 [    22]: 21220
      0.02030 [     5]: 11122
      0.01524 [    25]: 22102
      0.01301 [    14]: 20122
      0.01121 [    18]: 21112
      0.00873 [    15]: 20212
      0.00832 [    19]: 21121
      0.00629 [     2]: 02212
      0.00428 [    17]: 21022
      0.00371 [    13]: 12220
ROOT  11:  E=   -1547.9310891857 Eh  1.448 eV  11678.1 cm**-1
      0.36114 [    18]: 21112
      0.19829 [     9]: 12112
      0.06861 [    23]: 22012
      0.06144 [    12]: 12211
      0.05058 [    15]: 20212
      0.04907 [     6]: 11212
      0.03589 [     2]: 02212
      0.03312 [    21]: 21211
      0.02009 [     1]: 02122
      0.01717 [     7]: 11221
      0.01670 [     3]: 02221
      0.01533 [    14]: 20122
      0.01454 [    17]: 21022
      0.01156 [     5]: 11122
      0.00739 [     0]: 01222
      0.00597 [    26]: 22111
      0.00580 [    16]: 20221
      0.00480 [    13]: 12220
      0.00430 [    28]: 22201
      0.00346 [    11]: 12202
      0.00301 [     8]: 12022
      0.00297 [    22]: 21220
      0.00252 [    20]: 21202
ROOT  12:  E=   -1547.9275859135 Eh  1.543 eV  12447.0 cm**-1
      0.25471 [    15]: 20212
      0.22407 [     9]: 12112
      0.12623 [     6]: 11212
      0.11223 [     2]: 02212
      0.05017 [    10]: 12121
      0.04349 [    18]: 21112
      0.02992 [    19]: 21121
      0.02722 [    23]: 22012
      0.02500 [    26]: 22111
      0.01694 [     7]: 11221
      0.01443 [    20]: 21202
      0.01273 [    21]: 21211
      0.01202 [    14]: 20122
      0.00999 [     0]: 01222
      0.00765 [    24]: 22021
      0.00694 [    11]: 12202
      0.00641 [     3]: 02221
      0.00365 [    27]: 22120
      0.00332 [     5]: 11122
      0.00276 [     1]: 02122
      0.00255 [     8]: 12022
ROOT  13:  E=   -1547.9269228895 Eh  1.561 eV  12592.5 cm**-1
      0.21479 [     7]: 11221
      0.16582 [    19]: 21121
      0.15969 [    12]: 12211
      0.09625 [    24]: 22021
      0.09507 [    10]: 12121
      0.08925 [    21]: 21211
      0.06437 [    28]: 22201
      0.01781 [    29]: 22210
      0.01410 [     3]: 02221
      0.01335 [    26]: 22111
      0.00894 [     6]: 11212
      0.00882 [     1]: 02122
      0.00718 [    14]: 20122
      0.00706 [     9]: 12112
      0.00579 [     0]: 01222
      0.00511 [    11]: 12202
      0.00506 [    17]: 21022
      0.00499 [    18]: 21112
      0.00488 [     2]: 02212
      0.00349 [     5]: 11122
ROOT  14:  E=   -1547.9239468894 Eh  1.642 eV  13245.7 cm**-1
      0.19756 [    27]: 22120
      0.17952 [    22]: 21220
      0.16263 [    17]: 21022
      0.09289 [     5]: 11122
      0.08001 [     8]: 12022
      0.06606 [     1]: 02122
      0.06549 [    14]: 20122
      0.03415 [    13]: 12220
      0.03075 [     6]: 11212
      0.01994 [     9]: 12112
      0.01241 [    21]: 21211
      0.01062 [     0]: 01222
      0.00999 [    12]: 12211
      0.00952 [    18]: 21112
      0.00726 [     7]: 11221
      0.00515 [     2]: 02212
      0.00292 [    10]: 12121
      0.00282 [     4]: 10222
      0.00260 [     3]: 02221
ROOT  15:  E=   -1547.9232034422 Eh  1.662 eV  13408.8 cm**-1
      0.18940 [    19]: 21121
      0.14644 [    12]: 12211
      0.11546 [    10]: 12121
      0.10461 [    28]: 22201
      0.08646 [     3]: 02221
      0.08221 [    21]: 21211
      0.07301 [    16]: 20221
      0.06480 [    24]: 22021
      0.03340 [     6]: 11212
      0.01880 [    11]: 12202
      0.01611 [     7]: 11221
      0.01445 [     9]: 12112
      0.01267 [    26]: 22111
      0.01044 [    20]: 21202
      0.00945 [    18]: 21112
      0.00531 [    29]: 22210
      0.00432 [     8]: 12022
      0.00288 [     5]: 11122
      0.00260 [    13]: 12220
ROOT  16:  E=   -1547.9152351722 Eh  1.879 eV  15157.7 cm**-1
      0.39538 [     6]: 11212
      0.10882 [    18]: 21112
      0.10638 [    25]: 22102
      0.06497 [    20]: 21202
      0.06451 [     5]: 11122
      0.03626 [     1]: 02122
      0.03425 [     9]: 12112
      0.03013 [     0]: 01222
      0.02891 [    10]: 12121
      0.02606 [    26]: 22111
      0.01950 [    19]: 21121
      0.01892 [     4]: 10222
      0.01526 [    14]: 20122
      0.01420 [    17]: 21022
      0.00952 [    11]: 12202
      0.00774 [    21]: 21211
      0.00755 [     2]: 02212
      0.00510 [    15]: 20212
ROOT  17:  E=   -1547.9138369423 Eh  1.917 eV  15464.5 cm**-1
      0.21939 [     9]: 12112
      0.15231 [    18]: 21112
      0.13516 [    20]: 21202
      0.11952 [     0]: 01222
      0.06301 [     4]: 10222
      0.06269 [     6]: 11212
      0.05517 [    11]: 12202
      0.04082 [    21]: 21211
      0.01870 [     5]: 11122
      0.01778 [    12]: 12211
      0.01718 [    25]: 22102
      0.01543 [    23]: 22012
      0.01477 [    26]: 22111
      0.01238 [    10]: 12121
      0.01211 [    14]: 20122
      0.01027 [    15]: 20212
      0.01010 [    19]: 21121
      0.00478 [    17]: 21022
      0.00460 [     7]: 11221
      0.00447 [    27]: 22120
      0.00313 [    22]: 21220
ROOT  18:  E=   -1547.9130864659 Eh  1.938 eV  15629.2 cm**-1
      0.33138 [    13]: 12220
      0.18410 [    22]: 21220
      0.11320 [    29]: 22210
      0.11250 [    12]: 12211
      0.06037 [    21]: 21211
      0.03385 [    18]: 21112
      0.02894 [    27]: 22120
      0.02415 [     5]: 11122
      0.01535 [     9]: 12112
      0.01529 [     8]: 12022
      0.01009 [     0]: 01222
      0.00964 [    26]: 22111
      0.00773 [    10]: 12121
      0.00755 [    11]: 12202
      0.00673 [    19]: 21121
      0.00572 [    23]: 22012
      0.00540 [     6]: 11212
      0.00538 [     7]: 11221
      0.00535 [     2]: 02212
      0.00336 [    20]: 21202
      0.00328 [    24]: 22021
      0.00276 [     4]: 10222
ROOT  19:  E=   -1547.9094570995 Eh  2.037 eV  16425.8 cm**-1
      0.28511 [    10]: 12121
      0.22138 [     7]: 11221
      0.10188 [    19]: 21121
      0.05758 [     9]: 12112
      0.05516 [     3]: 02221
      0.04001 [    26]: 22111
      0.03734 [    27]: 22120
      0.03729 [    25]: 22102
      0.03687 [    12]: 12211
      0.03372 [    21]: 21211
      0.02146 [    18]: 21112
      0.01814 [    16]: 20221
      0.01715 [     6]: 11212
      0.00979 [    24]: 22021
      0.00829 [    13]: 12220
      0.00517 [     0]: 01222
      0.00313 [     4]: 10222
ROOT  20:  E=   -1547.9041964032 Eh  2.180 eV  17580.4 cm**-1
      0.19773 [     6]: 11212
      0.10985 [    25]: 22102
      0.10844 [     7]: 11221
      0.10389 [     9]: 12112
      0.09688 [    26]: 22111
      0.08512 [     5]: 11122
      0.04867 [    12]: 12211
      0.03550 [     1]: 02122
      0.02747 [    21]: 21211
      0.02508 [     2]: 02212
      0.02263 [    18]: 21112
      0.02053 [    10]: 12121
      0.01957 [    19]: 21121
      0.01666 [     0]: 01222
      0.01635 [     8]: 12022
      0.01314 [    15]: 20212
      0.01260 [    20]: 21202
      0.00855 [    13]: 12220
      0.00717 [    27]: 22120
      0.00662 [    22]: 21220
      0.00473 [     4]: 10222
      0.00363 [    24]: 22021
      0.00318 [    14]: 20122
ROOT  21:  E=   -1547.9039687212 Eh  2.186 eV  17630.4 cm**-1
      0.19017 [    28]: 22201
      0.15478 [     5]: 11122
      0.10773 [     8]: 12022
      0.06831 [    11]: 12202
      0.06080 [     1]: 02122
      0.05623 [    12]: 12211
      0.04788 [     0]: 01222
      0.03810 [     7]: 11221
      0.03787 [    20]: 21202
      0.03632 [    10]: 12121
      0.03209 [    21]: 21211
      0.03172 [    24]: 22021
      0.02931 [     4]: 10222
      0.02287 [    17]: 21022
      0.01966 [     9]: 12112
      0.01804 [     6]: 11212
      0.01030 [    14]: 20122
      0.00899 [    18]: 21112
      0.00861 [    19]: 21121
      0.00544 [    25]: 22102
      0.00539 [    23]: 22012
      0.00454 [    26]: 22111
ROOT  22:  E=   -1547.8989200295 Eh  2.323 eV  18738.4 cm**-1
      0.39834 [    29]: 22210
      0.12198 [    13]: 12220
      0.11606 [    12]: 12211
      0.06982 [    22]: 21220
      0.06340 [    21]: 21211
      0.03492 [    28]: 22201
      0.02514 [    11]: 12202
      0.02102 [    19]: 21121
      0.01657 [     2]: 02212
      0.01548 [     7]: 11221
      0.01431 [    20]: 21202
      0.01302 [    10]: 12121
      0.01236 [     1]: 02122
      0.01046 [    27]: 22120
      0.01002 [    18]: 21112
      0.00970 [    26]: 22111
      0.00640 [    15]: 20212
      0.00606 [    23]: 22012
      0.00566 [    14]: 20122
      0.00547 [     4]: 10222
      0.00406 [     5]: 11122
      0.00307 [    24]: 22021
      0.00302 [     9]: 12112
      0.00289 [     6]: 11212
      0.00268 [     3]: 02221
ROOT  23:  E=   -1547.8894033906 Eh  2.582 eV  20827.1 cm**-1
      0.21915 [    26]: 22111
      0.10706 [    12]: 12211
      0.10124 [     2]: 02212
      0.09348 [     9]: 12112
      0.08603 [    18]: 21112
      0.06170 [    21]: 21211
      0.06023 [    10]: 12121
      0.04137 [    20]: 21202
      0.03908 [     3]: 02221
      0.03567 [    15]: 20212
      0.03398 [    19]: 21121
      0.02632 [    16]: 20221
      0.01615 [    25]: 22102
      0.01512 [    27]: 22120
      0.01427 [     7]: 11221
      0.01408 [    23]: 22012
      0.01368 [     6]: 11212
      0.01337 [    11]: 12202
      0.00511 [    22]: 21220
ROOT  24:  E=   -1547.8871726355 Eh  2.643 eV  21316.7 cm**-1
      0.18721 [     6]: 11212
      0.18145 [    12]: 12211
      0.14311 [    29]: 22210
      0.10747 [     9]: 12112
      0.10512 [    21]: 21211
      0.08573 [     2]: 02212
      0.03839 [    15]: 20212
      0.02910 [    19]: 21121
      0.02180 [    23]: 22012
      0.02113 [     5]: 11122
      0.01705 [    26]: 22111
      0.01409 [    10]: 12121
      0.01231 [     0]: 01222
      0.00841 [     7]: 11221
      0.00506 [    14]: 20122
      0.00420 [    13]: 12220
      0.00298 [    17]: 21022
ROOT  25:  E=   -1547.8714846198 Eh  3.070 eV  24759.8 cm**-1
      0.16853 [     3]: 02221
      0.12378 [    19]: 21121
      0.10213 [    10]: 12121
      0.09772 [    25]: 22102
      0.06848 [    27]: 22120
      0.06752 [    16]: 20221
      0.04260 [     0]: 01222
      0.03923 [    13]: 12220
      0.03849 [    11]: 12202
      0.03779 [     9]: 12112
      0.03084 [     5]: 11122
      0.02612 [    22]: 21220
      0.02293 [     7]: 11221
      0.02221 [    24]: 22021
      0.01849 [    20]: 21202
      0.01431 [     4]: 10222
      0.01357 [    18]: 21112
      0.01190 [    26]: 22111
      0.00932 [    15]: 20212
      0.00879 [    21]: 21211
      0.00801 [    12]: 12211
      0.00657 [     6]: 11212
      0.00655 [     1]: 02122
      0.00613 [    23]: 22012
      0.00402 [    17]: 21022
      0.00354 [    14]: 20122
ROOT  26:  E=   -1547.8670705719 Eh  3.190 eV  25728.6 cm**-1
      0.47404 [    28]: 22201
      0.10842 [     5]: 11122
      0.06565 [     8]: 12022
      0.04463 [    12]: 12211
      0.04042 [     1]: 02122
      0.03219 [    13]: 12220
      0.03168 [     7]: 11221
      0.02933 [     0]: 01222
      0.02565 [    21]: 21211
      0.01878 [    22]: 21220
      0.01608 [     4]: 10222
      0.01342 [    17]: 21022
      0.01265 [     9]: 12112
      0.01205 [    29]: 22210
      0.01205 [    23]: 22012
      0.00936 [     6]: 11212
      0.00785 [    14]: 20122
      0.00764 [    19]: 21121
      0.00750 [    24]: 22021
      0.00617 [     3]: 02221
      0.00530 [    11]: 12202
      0.00423 [    18]: 21112
      0.00387 [    26]: 22111
      0.00357 [    20]: 21202
      0.00304 [    27]: 22120
ROOT  27:  E=   -1547.8451002408 Eh  3.788 eV  30550.5 cm**-1
      0.20670 [    25]: 22102
      0.16020 [     9]: 12112
      0.11517 [    11]: 12202
      0.07270 [    20]: 21202
      0.06142 [    18]: 21112
      0.05366 [    21]: 21211
      0.05014 [    12]: 12211
      0.04889 [    10]: 12121
      0.03428 [    26]: 22111
      0.03167 [     6]: 11212
      0.02862 [    19]: 21121
      0.02342 [     3]: 02221
      0.02326 [     7]: 11221
      0.01399 [    22]: 21220
      0.01384 [     5]: 11122
      0.01211 [    13]: 12220
      0.00816 [    16]: 20221
      0.00813 [    14]: 20122
      0.00617 [    27]: 22120
      0.00578 [    17]: 21022
      0.00575 [     4]: 10222
      0.00432 [    24]: 22021
      0.00328 [    15]: 20212
      0.00269 [     8]: 12022
ROOT  28:  E=   -1547.8440575489 Eh  3.816 eV  30779.3 cm**-1
      0.16234 [     9]: 12112
      0.15980 [    12]: 12211
      0.13243 [     6]: 11212
      0.11152 [    29]: 22210
      0.10052 [    23]: 22012
      0.08635 [    21]: 21211
      0.05369 [    18]: 21112
      0.03110 [    11]: 12202
      0.02283 [    19]: 21121
      0.02020 [     8]: 12022
      0.01916 [    20]: 21202
      0.01768 [    28]: 22201
      0.01438 [     7]: 11221
      0.01415 [    10]: 12121
      0.01263 [    26]: 22111
      0.00891 [     5]: 11122
      0.00864 [     1]: 02122
      0.00858 [    17]: 21022
      0.00446 [    16]: 20221
      0.00336 [     3]: 02221
      0.00292 [    25]: 22102
ROOT  29:  E=   -1547.8440219235 Eh  3.817 eV  30787.2 cm**-1
      0.23735 [    26]: 22111
      0.14562 [     2]: 02212
      0.13046 [    12]: 12211
      0.11820 [    18]: 21112
      0.09503 [     9]: 12112
      0.09223 [    21]: 21211
      0.04954 [    15]: 20212
      0.02895 [    22]: 21220
      0.02399 [    23]: 22012
      0.01659 [    20]: 21202
      0.01322 [    27]: 22120
      0.01108 [    11]: 12202
      0.00857 [    13]: 12220
      0.00623 [    17]: 21022
      0.00520 [    19]: 21121
      0.00496 [    10]: 12121
      0.00283 [     5]: 11122
ROOT  30:  E=   -1547.8355950119 Eh  4.046 eV  32636.7 cm**-1
      0.23925 [    26]: 22111
      0.11589 [    12]: 12211
      0.07155 [    27]: 22120
      0.06974 [    21]: 21211
      0.06883 [     1]: 02122
      0.05201 [    20]: 21202
      0.04628 [    11]: 12202
      0.04452 [     6]: 11212
      0.04208 [    14]: 20122
      0.03802 [     7]: 11221
      0.03489 [     3]: 02221
      0.03328 [    17]: 21022
      0.02296 [    16]: 20221
      0.02200 [    25]: 22102
      0.02017 [     9]: 12112
      0.02015 [     0]: 01222
      0.01574 [     5]: 11122
      0.01194 [    19]: 21121
      0.01107 [    10]: 12121
      0.00821 [    22]: 21220
      0.00421 [     4]: 10222
ROOT  31:  E=   -1547.8028960542 Eh  4.936 eV  39813.2 cm**-1
      0.25546 [    19]: 21121
      0.13548 [     5]: 11122
      0.11023 [    16]: 20221
      0.08917 [    10]: 12121
      0.08629 [    14]: 20122
      0.05805 [    11]: 12202
      0.04982 [    24]: 22021
      0.04311 [     4]: 10222
      0.04004 [    17]: 21022
      0.03565 [     7]: 11221
      0.03068 [    20]: 21202
      0.01321 [     1]: 02122
      0.00852 [    22]: 21220
      0.00758 [    23]: 22012
      0.00563 [    15]: 20212
      0.00502 [    13]: 12220
      0.00495 [    25]: 22102
      0.00455 [     0]: 01222
      0.00413 [    27]: 22120
      0.00284 [     3]: 02221
ROOT  32:  E=   -1547.8025774069 Eh  4.945 eV  39883.2 cm**-1
      0.23145 [     5]: 11122
      0.19978 [    14]: 20122
      0.19225 [    17]: 21022
      0.12180 [     8]: 12022
      0.06153 [    27]: 22120
      0.03632 [    13]: 12220
      0.03441 [     1]: 02122
      0.02817 [     4]: 10222
      0.01572 [    22]: 21220
      0.01178 [    26]: 22111
      0.00919 [     9]: 12112
      0.00855 [    19]: 21121
      0.00746 [     0]: 01222
      0.00646 [    12]: 12211
      0.00574 [    21]: 21211
      0.00532 [    18]: 21112
      0.00391 [     7]: 11221
      0.00351 [    15]: 20212
      0.00332 [     6]: 11212
      0.00320 [     2]: 02212
      0.00314 [    16]: 20221
      0.00291 [    20]: 21202
ROOT  33:  E=   -1547.7976013690 Eh  5.080 eV  40975.3 cm**-1
      0.49579 [    18]: 21112
      0.11426 [     9]: 12112
      0.10403 [     6]: 11212
      0.08252 [     2]: 02212
      0.05859 [    29]: 22210
      0.02327 [    11]: 12202
      0.01300 [    20]: 21202
      0.01216 [    19]: 21121
      0.01192 [     5]: 11122
      0.01190 [    15]: 20212
      0.00987 [    28]: 22201
      0.00892 [    14]: 20122
      0.00867 [     1]: 02122
      0.00718 [    10]: 12121
      0.00702 [    16]: 20221
      0.00646 [    12]: 12211
      0.00387 [    23]: 22012
      0.00386 [    24]: 22021
      0.00352 [    21]: 21211
      0.00335 [    13]: 12220
ROOT  34:  E=   -1547.7881313645 Eh  5.338 eV  43053.7 cm**-1
      0.24099 [    11]: 12202
      0.20844 [    19]: 21121
      0.13979 [    20]: 21202
      0.11868 [    10]: 12121
      0.04675 [     6]: 11212
      0.02832 [    13]: 12220
      0.02797 [     2]: 02212
      0.02679 [     3]: 02221
      0.02609 [     5]: 11122
      0.01974 [    25]: 22102
      0.01928 [    18]: 21112
      0.01772 [    29]: 22210
      0.01694 [    22]: 21220
      0.01433 [    12]: 12211
      0.01360 [    24]: 22021
      0.00874 [    21]: 21211
      0.00476 [    28]: 22201
      0.00322 [    14]: 20122
ROOT  35:  E=   -1547.7859454777 Eh  5.397 eV  43533.5 cm**-1
      0.16174 [    25]: 22102
      0.11475 [    22]: 21220
      0.07635 [     0]: 01222
      0.07185 [    17]: 21022
      0.06899 [    14]: 20122
      0.06551 [    26]: 22111
      0.06397 [     1]: 02122
      0.05950 [    20]: 21202
      0.04912 [    12]: 12211
      0.04125 [    13]: 12220
      0.03807 [    21]: 21211
      0.03418 [    27]: 22120
      0.02270 [     9]: 12112
      0.02005 [    18]: 21112
      0.01937 [     2]: 02212
      0.01753 [     6]: 11212
      0.01740 [     8]: 12022
      0.01620 [    10]: 12121
      0.01576 [     4]: 10222
      0.00797 [    19]: 21121
      0.00587 [    11]: 12202
      0.00563 [    15]: 20212
      0.00418 [    23]: 22012
ROOT  36:  E=   -1547.7546932732 Eh  6.248 eV  50392.5 cm**-1
      0.26169 [    23]: 22012
      0.24101 [    15]: 20212
      0.16400 [     2]: 02212
      0.07488 [    29]: 22210
      0.04030 [     4]: 10222
      0.03086 [    17]: 21022
      0.02722 [    18]: 21112
      0.02580 [     8]: 12022
      0.01891 [    11]: 12202
      0.01785 [     5]: 11122
      0.01567 [    16]: 20221
      0.01101 [     3]: 02221
      0.01086 [    20]: 21202
      0.00918 [     0]: 01222
      0.00709 [    28]: 22201
      0.00693 [    12]: 12211
      0.00579 [     9]: 12112
      0.00494 [     7]: 11221
      0.00481 [    13]: 12220
      0.00436 [     1]: 02122
      0.00394 [     6]: 11212
      0.00394 [    21]: 21211
      0.00279 [    22]: 21220
ROOT  37:  E=   -1547.7362427159 Eh  6.750 eV  54442.0 cm**-1
      0.28470 [    27]: 22120
      0.17991 [    13]: 12220
      0.12717 [    22]: 21220
      0.10158 [    25]: 22102
      0.04548 [    14]: 20122
      0.04394 [    11]: 12202
      0.04003 [     1]: 02122
      0.03574 [    26]: 22111
      0.02486 [     8]: 12022
      0.02433 [    20]: 21202
      0.02100 [     4]: 10222
      0.01743 [    17]: 21022
      0.01357 [     7]: 11221
      0.01085 [     0]: 01222
      0.00991 [    10]: 12121
      0.00316 [     3]: 02221
      0.00304 [    12]: 12211
      0.00302 [    19]: 21121
      0.00268 [     9]: 12112
ROOT  38:  E=   -1547.7281337199 Eh  6.971 eV  56221.7 cm**-1
      0.14812 [     5]: 11122
      0.13547 [    24]: 22021
      0.12864 [    16]: 20221
      0.12264 [     4]: 10222
      0.07249 [    14]: 20122
      0.06684 [    17]: 21022
      0.05358 [     8]: 12022
      0.05047 [     3]: 02221
      0.04533 [     7]: 11221
      0.03163 [     0]: 01222
      0.02604 [    15]: 20212
      0.02430 [    19]: 21121
      0.01591 [    18]: 21112
      0.01410 [    11]: 12202
      0.01247 [    28]: 22201
      0.01198 [     9]: 12112
      0.00966 [     1]: 02122
      0.00805 [    20]: 21202
      0.00643 [     2]: 02212
      0.00422 [    13]: 12220
      0.00379 [     6]: 11212
      0.00255 [    22]: 21220
ROOT  39:  E=   -1547.7256432458 Eh  7.038 eV  56768.3 cm**-1
      0.16553 [    24]: 22021
      0.09748 [    10]: 12121
      0.08907 [     3]: 02221
      0.07346 [    19]: 21121
      0.06774 [    28]: 22201
      0.06696 [    11]: 12202
      0.06368 [    23]: 22012
      0.05156 [    16]: 20221
      0.04758 [     4]: 10222
      0.04152 [     8]: 12022
      0.03798 [    20]: 21202
      0.03048 [     2]: 02212
      0.02999 [     0]: 01222
      0.02798 [     7]: 11221
      0.02294 [    15]: 20212
      0.02064 [    17]: 21022
      0.01380 [    29]: 22210
      0.01115 [    13]: 12220
      0.00736 [    14]: 20122
      0.00651 [    22]: 21220
      0.00635 [     9]: 12112
      0.00602 [    18]: 21112
      0.00599 [    25]: 22102
      0.00309 [    12]: 12211

                 <<<<<<<<<<<<<<<<<<INITIAL CI STATE CHECK>>>>>>>>>>>>>>>>>>

   E(CAS)= -1547.935215002 Eh DE=    0.000000e+00
   --- Energy gap subspaces: Ext-Act = 1.288   Act-Int = 0.139
   --- current l-shift: Up(Ext-Act) = 1.00   Dn(Act-Int) = 1.86
   N(occ)=  1.40000 1.40000 1.40000 1.40000 1.40000
   ||g|| =     1.219133e+02 Max(G)=    1.101966e+02 Rot=341,0
   --- Option=FreezeIE: ||g|| =    121.905785121 
                              = 99.99% 
                        Damping (0.029) elements outside Int-Ext
   --- Orbital Update [   SuperCI]
   SUPERCI-ITER   0: DE=    -0.257228160 <r|r>=      0.006716576
   SUPERCI-ITER   1: DE=    -0.000876896 <r|r>=      0.014048168
   SUPERCI-ITER   2: DE=    -0.000122201 <r|r>=      0.001895296
   SUPERCI-ITER   3: DE=    -0.000031730 <r|r>=      0.000280621
   SUPERCI-ITER   4: DE=    -0.000003826 <r|r>=      0.000020258
   SUPERCI-ITER   5: DE=    -0.000000722 <r|r>=      0.000000688
   SUPERCI-ITER   6: DE=    -0.000000132 <r|r>=      0.000000225
   SUPERCI-ITER   7: DE=    -0.000000035 <r|r>=      0.000000092
   SUPERCI-ITER   8: DE=    -0.000000005 <r|r>=      0.000000060
   SUPERCI-ITER   9: DE=    -0.000000001 
   <Psi(SX)|Psi(SX)>=      1.000000000 DE(SX)=-0.258263707
   Largest coefficient in the normalized |SX> wavefunction= 0.022780146
   --- Forming Natural Orbitals

MACRO-ITERATION   2: 
   --- Canonicalize Internal Space
   --- Canonicalize External Space
   --- Inactive Energy E0 = -1530.99759911 Eh
CI-ITERATION   0: 
 -1548.963004503   0.000000000000 (    0.00)
 -1548.959848337   0.000000000000
 -1548.956979548   0.000000000000
 -1548.950084180   0.000000000000
 -1548.948293172   0.000000000000
 -1548.945358532   0.000000000000
 -1548.942963223   0.000000000000
 -1548.902425383   0.000000000000
 -1548.887088643   0.000000000000
 -1548.885790407   0.000000000000
   CI-PROBLEM SOLVED
   DENSITIES MADE
CI-ITERATION   0: 
 -1548.917186584   0.000000000000 (    0.00)
 -1548.916726864   0.000000000000
 -1548.912562077   0.000000000000
 -1548.909697075   0.000000000000
 -1548.905053386   0.000000000000
 -1548.901990458   0.000000000000
 -1548.890608627   0.000000000000
 -1548.884562141   0.000000000000
 -1548.882316347   0.000000000000
 -1548.880314985   0.000000000000
 -1548.879777369   0.000000000000
 -1548.876405681   0.000000000000
 -1548.874984710   0.000000000000
 -1548.871442106   0.000000000000
 -1548.867795459   0.000000000000
 -1548.867683869   0.000000000000
 -1548.867024079   0.000000000000
 -1548.864525796   0.000000000000
 -1548.863917693   0.000000000000
 -1548.858862790   0.000000000000
 -1548.858763083   0.000000000000
 -1548.855557394   0.000000000000
 -1548.849634212   0.000000000000
 -1548.846286569   0.000000000000
 -1548.842874429   0.000000000000
 -1548.834051976   0.000000000000
 -1548.831369883   0.000000000000
 -1548.809223925   0.000000000000
 -1548.808628314   0.000000000000
 -1548.807821944   0.000000000000
 -1548.796168892   0.000000000000
 -1548.752101224   0.000000000000
 -1548.747209159   0.000000000000
 -1548.726316941   0.000000000000
 -1548.725458281   0.000000000000
 -1548.717653851   0.000000000000
 -1548.684505954   0.000000000000
 -1548.678736455   0.000000000000
 -1548.670375596   0.000000000000
 -1548.629847369   0.000000000000
   CI-PROBLEM SOLVED
   DENSITIES MADE
   E(CAS)= -1548.881667091 Eh DE=   -9.464521e-01
   --- Energy gap subspaces: Ext-Act = 0.321   Act-Int = 0.024
   --- current l-shift: Up(Ext-Act) = 1.18   Dn(Act-Int) = 1.48
   N(occ)=  1.40000 1.40000 1.40000 1.40000 1.40000
   ||g|| =     3.615990e+01 Max(G)=    3.272448e+01 Rot=341,0
   --- Option=FreezeIE: ||g|| =     36.135851792 
                              = 99.93% 
                        Damping (0.029) elements outside Int-Ext
   --- Orbital Update [   SuperCI]
   SUPERCI-ITER   0: DE=    -0.023501284 <r|r>=      0.000013152
   SUPERCI-ITER   1: DE=    -0.000004159 <r|r>=      0.000005971
   SUPERCI-ITER   2: DE=    -0.000000046 <r|r>=      0.000005868
   Warning: Orthogonalization failed (-2e-16)! Terminating Iterations.
   <Psi(SX)|Psi(SX)>=      1.000000000 DE(SX)=-0.023505489
   Largest coefficient in the normalized |SX> wavefunction= 0.008278654
   --- Forming Natural Orbitals

MACRO-ITERATION   3: 
   --- Canonicalize Internal Space
   --- Canonicalize External Space
   --- Inactive Energy E0 = -1531.11965424 Eh
CI-ITERATION   0: 
 -1549.053810829   0.000000000000 (    0.00)
 -1549.051637853   0.000000000000
 -1549.046764759   0.000000000000
 -1549.037672623   0.000000000000
 -1549.035138377   0.000000000000
 -1549.032567325   0.000000000000
 -1549.029519831   0.000000000000
 -1548.988768001   0.000000000000
 -1548.977081020   0.000000000000
 -1548.973859973   0.000000000000
   CI-PROBLEM SOLVED
   DENSITIES MADE
CI-ITERATION   0: 
 -1549.003652676   0.000000000000 (    0.00)
 -1549.003336568   0.000000000000
 -1548.999170557   0.000000000000
 -1548.998924963   0.000000000000
 -1548.993467855   0.000000000000
 -1548.992723616   0.000000000000
 -1548.982136105   0.000000000000
 -1548.973766985   0.000000000000
 -1548.970553956   0.000000000000
 -1548.969723970   0.000000000000
 -1548.967695939   0.000000000000
 -1548.967209093   0.000000000000
 -1548.963778053   0.000000000000
 -1548.962831164   0.000000000000
 -1548.956583267   0.000000000000
 -1548.956358464   0.000000000000
 -1548.954893823   0.000000000000
 -1548.951825038   0.000000000000
 -1548.951809192   0.000000000000
 -1548.946630604   0.000000000000
 -1548.946132581   0.000000000000
 -1548.944467000   0.000000000000
 -1548.936898134   0.000000000000
 -1548.936156375   0.000000000000
 -1548.930681499   0.000000000000
 -1548.925837272   0.000000000000
 -1548.921222005   0.000000000000
 -1548.900010156   0.000000000000
 -1548.899200850   0.000000000000
 -1548.898343584   0.000000000000
 -1548.886713249   0.000000000000
 -1548.843385290   0.000000000000
 -1548.837971463   0.000000000000
 -1548.814353917   0.000000000000
 -1548.812227657   0.000000000000
 -1548.804996589   0.000000000000
 -1548.769074667   0.000000000000
 -1548.763992844   0.000000000000
 -1548.753017793   0.000000000000
 -1548.711906980   0.000000000000
   CI-PROBLEM SOLVED
   DENSITIES MADE
   E(CAS)= -1548.970136802 Eh DE=   -8.846971e-02
   --- Energy gap subspaces: Ext-Act = 0.320   Act-Int = 0.033
   --- current l-shift: Up(Ext-Act) = 1.01   Dn(Act-Int) = 1.30
   N(occ)=  1.40000 1.40000 1.40000 1.40000 1.40000
   ||g|| =     1.076123e+01 Max(G)=   -9.677332e+00 Rot=341,0
   --- Option=FreezeIE: ||g|| =     10.682334148 
                              = 99.27% 
                        Damping (0.029) elements outside Int-Ext
   --- Orbital Update [   SuperCI]
   SUPERCI-ITER   0: DE=    -0.002345071 <r|r>=      0.000002487
   SUPERCI-ITER   1: DE=    -0.000000978 <r|r>=      0.000001013
   SUPERCI-ITER   2: DE=    -0.000000008 <r|r>=      0.000000038
   Warning: Orthogonalization failed (-1e-17)! Terminating Iterations.
   <Psi(SX)|Psi(SX)>=      1.000000000 DE(SX)=-0.002346057
   Largest coefficient in the normalized |SX> wavefunction= 0.005774860
   --- Forming Natural Orbitals

MACRO-ITERATION   4: 
   --- Canonicalize Internal Space
   --- Canonicalize External Space
   --- Inactive Energy E0 = -1531.12024009 Eh
CI-ITERATION   0: 
 -1549.064845823   0.000000000000 (    0.00)
 -1549.062963700   0.000000000000
 -1549.057514833   0.000000000000
 -1549.047707001   0.000000000000
 -1549.045080435   0.000000000000
 -1549.042573853   0.000000000000
 -1549.039444318   0.000000000000
 -1548.998222107   0.000000000000
 -1548.987851297   0.000000000000
 -1548.984065565   0.000000000000
   CI-PROBLEM SOLVED
   DENSITIES MADE
CI-ITERATION   0: 
 -1549.013537481   0.000000000000 (    0.00)
 -1549.013217281   0.000000000000
 -1549.009694645   0.000000000000
 -1549.009128518   0.000000000000
 -1549.003540387   0.000000000000
 -1549.003440155   0.000000000000
 -1548.993276423   0.000000000000
 -1548.984567546   0.000000000000
 -1548.981151053   0.000000000000
 -1548.979750417   0.000000000000
 -1548.978118593   0.000000000000
 -1548.977388021   0.000000000000
 -1548.974702525   0.000000000000
 -1548.973490903   0.000000000000
 -1548.967143951   0.000000000000
 -1548.966452001   0.000000000000
 -1548.964981499   0.000000000000
 -1548.962068938   0.000000000000
 -1548.961716835   0.000000000000
 -1548.956327788   0.000000000000
 -1548.956025321   0.000000000000
 -1548.954564132   0.000000000000
 -1548.947111408   0.000000000000
 -1548.946669246   0.000000000000
 -1548.941027477   0.000000000000
 -1548.936829973   0.000000000000
 -1548.931807693   0.000000000000
 -1548.910552978   0.000000000000
 -1548.909747563   0.000000000000
 -1548.908965276   0.000000000000
 -1548.897328692   0.000000000000
 -1548.854363303   0.000000000000
 -1548.848792963   0.000000000000
 -1548.824516125   0.000000000000
 -1548.821908001   0.000000000000
 -1548.815225559   0.000000000000
 -1548.778627569   0.000000000000
 -1548.773685153   0.000000000000
 -1548.762859215   0.000000000000
 -1548.721890897   0.000000000000
   CI-PROBLEM SOLVED
   DENSITIES MADE
   E(CAS)= -1548.980465865 Eh DE=   -1.032906e-02
   --- Energy gap subspaces: Ext-Act = 0.317   Act-Int = 0.034
   --- current l-shift: Up(Ext-Act) = 0.68   Dn(Act-Int) = 0.97
   N(occ)=  1.40000 1.40000 1.40000 1.40000 1.40000
   ||g|| =     3.432929e+00 Max(G)=    2.862214e+00 Rot=341,0
   --- Orbital Update [   SuperCI]
   SUPERCI-ITER   0: DE=    -0.012319525 <r|r>=      0.001217822
   SUPERCI-ITER   1: DE=    -0.000043654 <r|r>=      0.000199464
   SUPERCI-ITER   2: DE=    -0.000004989 <r|r>=      0.000001217
   SUPERCI-ITER   3: DE=    -0.000000048 <r|r>=      0.000000005
   SUPERCI-ITER   4: DE=    -0.000000000 
   <Psi(SX)|Psi(SX)>=      1.000000000 DE(SX)=-0.012368215
   Largest coefficient in the normalized |SX> wavefunction= 0.068594539
   --- Forming Natural Orbitals

MACRO-ITERATION   5: 
   --- Canonicalize Internal Space
   --- Canonicalize External Space
   --- Inactive Energy E0 = -1530.66579063 Eh
CI-ITERATION   0: 
 -1549.121178943   0.000000000000 (    0.00)
 -1549.117115197   0.000000000000
 -1549.107275185   0.000000000000
 -1549.078784245   0.000000000000
 -1549.074415119   0.000000000000
 -1549.074137548   0.000000000000
 -1549.068986474   0.000000000000
 -1549.036232151   0.000000000000
 -1549.021986669   0.000000000000
 -1549.013643305   0.000000000000
   CI-PROBLEM SOLVED
   DENSITIES MADE
CI-ITERATION   0: 
 -1549.054022678   0.000000000000 (    0.00)
[...]
 3 106   44016.6    227.2   0.00000   0.00007   0.00000   0.00000000022297   0.96390   0.03608   0.00002
 3 107   44016.6    227.2   0.00000   0.00000   0.00000   0.00000000013008   0.99711   0.00269   0.00020
 3 108   44303.4    225.7   0.00000   0.00002   0.00000   0.00000000130503   0.99835   0.00161   0.00004
 3 109   44303.4    225.7   0.00000   0.00003   0.00000   0.00000000165684   0.99802   0.00197   0.00001
 3 110   63711.2    157.0   0.00000   0.00000   0.00000   0.00000000169075   0.99986   0.00010   0.00004
 3 111   63711.2    157.0   0.00000   0.00000   0.00000   0.00000000016141   0.99966   0.00024   0.00011
 3 112   64472.5    155.1   0.00000   0.00000   0.00000   0.00000000087928   0.99929   0.00063   0.00008
 3 113   64472.5    155.1   0.00000   0.00000   0.00000   0.00000000045625   0.99907   0.00057   0.00036
 3 114   65089.3    153.6   0.00000   0.00000   0.00000   0.00000000212776   0.99982   0.00004   0.00014
 3 115   65089.3    153.6   0.00000   0.00001   0.00000   0.00000000662706   0.99974   0.00019   0.00007
 3 116   69852.7    143.2   0.00000   0.00000   0.00000   0.00000000417641   0.99982   0.00011   0.00007
 3 117   69852.7    143.2   0.00000   0.00000   0.00000   0.00000000268711   0.99984   0.00005   0.00011
 3 118   70383.3    142.1   0.00000   0.00001   0.00000   0.00000000214694   0.99914   0.00081   0.00005
 3 119   70383.3    142.1   0.00000   0.00000   0.00000   0.00000000030847   0.99868   0.00080   0.00052

Done

                 =============================
                 AB INITIO LIGAND FIELD THEORY
                       d7 configuration
                          2 CI blocks
                         MOs 27 to 31
                 =============================

Metal/Atom center is atom 0
orbital phases =   1.0   1.0   1.0   1.0   1.0 
Metal/Atom d-orbital parts of active orbitals
Shell 15
             27        28        29        30        31
dz2     :  0.608656  0.000031 -0.000041 -0.000791 -0.000121
dxz     : -0.000088  0.604199  0.000487 -0.000073  0.000344
dyz     :  0.000395 -0.002307  0.612749 -0.000035  0.000049
dx2y2   :  0.017413  0.000458 -0.001553  0.593405 -0.000183
dxy     :  0.003677 -0.003484 -0.000746 -0.009349  0.613193
Shell 16
             27        28        29        30        31
dz2     :  0.405802 -0.000032 -0.000038  0.001061  0.000256
dxz     : -0.000116  0.398523 -0.000226 -0.000019 -0.000050
dyz     :  0.000290 -0.002124  0.409385  0.000074 -0.000005
dx2y2   :  0.013396  0.000335 -0.000882  0.394125  0.000188
dxy     :  0.002784 -0.002575 -0.000514 -0.005836  0.406397
Shell 17
             27        28        29        30        31
dz2     :  0.223913 -0.000029  0.000225 -0.002384 -0.000934
dxz     :  0.000033  0.218496 -0.000506  0.000133 -0.000097
dyz     :  0.000128 -0.001055  0.223125  0.000067 -0.000027
dx2y2   :  0.002580  0.000300 -0.000931  0.219949  0.001364
dxy     :  0.000238 -0.001497 -0.000494 -0.002217  0.223752
Shell 20
             27        28        29        30        31
dz2     :  0.018243  0.000389  0.000180  0.005181  0.000661
dxz     :  0.000293  0.021097 -0.000608  0.000042 -0.000083
dyz     :  0.000142 -0.001129  0.020596 -0.000337 -0.000108
dx2y2   :  0.005757 -0.000146 -0.000335  0.008897 -0.001080
dxy     :  0.000539 -0.000424 -0.000394 -0.003343  0.023100

Adjusting phases of one-electron integrals               ... done
Adjusting phases of two-electron integrals               ... done


-----------------------------------------------------------------
Computing F0s from 2-electron integrals                  ... done 
-----------------------------------------------------------------
F0   =  0.875375103 a.u. =    23.820 eV =  192122.6 cm**-1
-----------------------------------------------------------------

Preparing for fit                                        ... done
Making fit matrices                                      ... done
Calculating ab initio Hamiltonian matrices               ... 
Calculating fit matrices                                 ... done
Fitting                                                  ... done

------------------------------
AILFT MATRIX ELEMENTS (CASSCF)
--------------------------------

Ligand field one-electron matrix VLFT (a.u.) : 
Orbital          dz2        dxz        dyz        dx2-y2     dxy
  dz2         -5.736391   0.000147  -0.000122  -0.008631  -0.001562 
  dxz          0.000147  -5.715038   0.003229  -0.000388   0.002297 
  dyz         -0.000122   0.003229  -5.740267  -0.000190   0.000360 
  dx2-y2      -0.008631  -0.000388  -0.000190  -5.725293   0.000187 
  dxy         -0.001562   0.002297   0.000360   0.000187  -5.730008 

-------------------------------------------------
Slater-Condon Parameters (electronic repulsion) : 
-------------------------------------------------
F0dd(from 2el Ints)     =  0.875375103 a.u. =    23.820 eV =  192122.6 cm**-1 (fixed)
F2dd                    =  0.394245083 a.u. =    10.728 eV =   86526.8 cm**-1
F4dd                    =  0.249451230 a.u. =     6.788 eV =   54748.2 cm**-1
-------------------
Racah Parameters : 
-------------------
A(F0dd from 2el Ints)   =  0.847658300 a.u. =    23.066 eV =  186039.5 cm**-1
B                       =  0.005217573 a.u. =     0.142 eV =    1145.1 cm**-1
C                       =  0.019797717 a.u. =     0.539 eV =    4345.1 cm**-1
C/B                     =  3.794
-------------------------------------------------------------------------------

-----------------------------------------
The ligand field one electron eigenfunctions:
-----------------------------------------
Orbital    Energy (eV)  Energy(cm-1)      dz2        dxz        dyz        dx2-y2     dxy
    1          0.000        0.0        -0.840352   0.040980  -0.272500  -0.454020  -0.108347 
    2          0.019      149.2         0.241501   0.117316  -0.954076   0.126615   0.040267 
    3          0.299     2414.7        -0.053922  -0.148156  -0.009355  -0.141176   0.977305 
    4          0.566     4566.1        -0.482090   0.030280   0.001450   0.869447   0.103601 
    5          0.736     5932.4         0.012965   0.980658   0.124065  -0.044349   0.144161 
Ligand field orbitals were stored in rho.casscf.lft.gbw

Calculating ligand field Hamiltonian matrices          ... done
Diagonalizing and fitting the ligand field Hamiltonian ... done
Calculating statistical parameters                     ... done

Reference energy AI-LFT =    -22.261950786 au
Reference energy AI     =    -22.259780938 au

------------------------------------------------
COMPARISON OF AB INITIO AND LIGAND FIELD RESULTS
------------------------------------------------

Block   1
---------
   AI-Root   0: E(AI)=    0.000 eV -> LF-Root   0:     0.000 eV    S= 0.986 Delta=    0.000 eV
   AI-Root   1: E(AI)=    0.031 eV -> LF-Root   1:     0.044 eV    S= 0.984 Delta=   -0.013 eV
   AI-Root   2: E(AI)=    0.085 eV -> LF-Root   2:     0.185 eV    S= 0.989 Delta=   -0.100 eV
   AI-Root   3: E(AI)=    0.106 eV -> LF-Root   3:     0.204 eV    S= 0.978 Delta=   -0.099 eV
   AI-Root   4: E(AI)=    0.330 eV -> LF-Root   4:     0.350 eV    S= 0.988 Delta=   -0.019 eV
   AI-Root   5: E(AI)=    0.332 eV -> LF-Root   5:     0.400 eV    S= 0.995 Delta=   -0.067 eV
   AI-Root   6: E(AI)=    0.406 eV -> LF-Root   6:     0.495 eV    S= 0.996 Delta=   -0.089 eV
   AI-Root   7: E(AI)=    2.104 eV -> LF-Root   7:     2.073 eV    S= 1.000 Delta=    0.031 eV
   AI-Root   8: E(AI)=    2.407 eV -> LF-Root   8:     2.504 eV    S= 1.000 Delta=   -0.097 eV
   AI-Root   9: E(AI)=    2.676 eV -> LF-Root   9:     2.798 eV    S= 1.000 Delta=   -0.122 eV
   (Dropping RMS error for the reference energy)
   RMS error for this block =     0.080 eV =     647.5 cm**-1 

Block   2
---------
   AI-Root   0: E(AI)=    2.137 eV -> LF-Root   0:     2.155 eV    S= 0.995 Delta=   -0.018 eV
   AI-Root   1: E(AI)=    2.161 eV -> LF-Root   1:     2.235 eV    S= 0.995 Delta=   -0.074 eV
   AI-Root   2: E(AI)=    2.215 eV -> LF-Root   2:     2.274 eV    S= 0.986 Delta=   -0.059 eV
   AI-Root   3: E(AI)=    2.236 eV -> LF-Root   3:     2.331 eV    S= 0.991 Delta=   -0.095 eV
   AI-Root   4: E(AI)=    2.263 eV -> LF-Root   4:     2.360 eV    S= 0.992 Delta=   -0.097 eV
   AI-Root   5: E(AI)=    2.335 eV -> LF-Root   5:     2.410 eV    S= 0.991 Delta=   -0.075 eV
   AI-Root   6: E(AI)=    2.375 eV -> LF-Root   6:     2.444 eV    S= 0.985 Delta=   -0.068 eV
   AI-Root   7: E(AI)=    2.439 eV -> LF-Root   7:     2.485 eV    S= 0.992 Delta=   -0.046 eV
   AI-Root   8: E(AI)=    2.452 eV -> LF-Root   8:     2.499 eV    S= 0.993 Delta=   -0.047 eV
   AI-Root   9: E(AI)=    2.659 eV -> LF-Root   9:     2.713 eV    S= 0.992 Delta=   -0.054 eV
   AI-Root  10: E(AI)=    2.665 eV -> LF-Root  10:     2.753 eV    S= 0.996 Delta=   -0.088 eV
   AI-Root  11: E(AI)=    2.817 eV -> LF-Root  11:     2.872 eV    S= 0.878 Delta=   -0.055 eV
   AI-Root  12: E(AI)=    2.865 eV -> LF-Root  12:     2.903 eV    S= 0.886 Delta=   -0.037 eV
   AI-Root  13: E(AI)=    2.918 eV -> LF-Root  13:     2.961 eV    S= 0.976 Delta=   -0.043 eV
   AI-Root  14: E(AI)=    2.924 eV -> LF-Root  14:     3.021 eV    S= 0.934 Delta=   -0.098 eV
   AI-Root  15: E(AI)=    2.994 eV -> LF-Root  15:     3.048 eV    S= 0.934 Delta=   -0.055 eV
   AI-Root  16: E(AI)=    3.115 eV -> LF-Root  16:     3.199 eV    S= 0.919 Delta=   -0.085 eV
   AI-Root  17: E(AI)=    3.170 eV -> LF-Root  17:     3.211 eV    S= 0.803 Delta=   -0.041 eV
   AI-Root  18: E(AI)=    3.195 eV -> LF-Root  18:     3.224 eV    S= 0.925 Delta=   -0.029 eV
   AI-Root  19: E(AI)=    3.201 eV -> LF-Root  19:     3.268 eV    S= 0.800 Delta=   -0.066 eV
   AI-Root  20: E(AI)=    3.274 eV -> LF-Root  20:     3.316 eV    S= 0.982 Delta=   -0.042 eV
   AI-Root  21: E(AI)=    3.418 eV -> LF-Root  21:     3.439 eV    S= 0.995 Delta=   -0.021 eV
   AI-Root  22: E(AI)=    3.420 eV -> LF-Root  22:     3.443 eV    S= 0.995 Delta=   -0.023 eV
   AI-Root  23: E(AI)=    3.471 eV -> LF-Root  23:     3.531 eV    S= 0.985 Delta=   -0.060 eV
   AI-Root  24: E(AI)=    3.513 eV -> LF-Root  24:     3.611 eV    S= 0.985 Delta=   -0.098 eV
   AI-Root  25: E(AI)=    3.526 eV -> LF-Root  25:     3.620 eV    S= 0.987 Delta=   -0.094 eV
   AI-Root  26: E(AI)=    3.560 eV -> LF-Root  26:     3.667 eV    S= 0.955 Delta=   -0.108 eV
   AI-Root  27: E(AI)=    3.591 eV -> LF-Root  27:     3.594 eV    S= 0.948 Delta=   -0.003 eV
   AI-Root  28: E(AI)=    5.099 eV -> LF-Root  28:     5.195 eV    S= 0.999 Delta=   -0.096 eV
   AI-Root  29: E(AI)=    5.150 eV -> LF-Root  29:     5.215 eV    S= 0.999 Delta=   -0.066 eV
   AI-Root  30: E(AI)=    5.222 eV -> LF-Root  30:     5.292 eV    S= 0.999 Delta=   -0.069 eV
   AI-Root  31: E(AI)=    5.307 eV -> LF-Root  31:     5.365 eV    S= 0.999 Delta=   -0.058 eV
   AI-Root  32: E(AI)=    5.316 eV -> LF-Root  32:     5.375 eV    S= 1.000 Delta=   -0.060 eV
   AI-Root  33: E(AI)=    5.425 eV -> LF-Root  33:     5.498 eV    S= 0.893 Delta=   -0.073 eV
   AI-Root  34: E(AI)=    5.426 eV -> LF-Root  34:     5.498 eV    S= 0.893 Delta=   -0.072 eV
   AI-Root  35: E(AI)=    7.850 eV -> LF-Root  35:     7.847 eV    S= 0.999 Delta=    0.002 eV
   AI-Root  36: E(AI)=    7.947 eV -> LF-Root  36:     7.979 eV    S= 1.000 Delta=   -0.032 eV
   AI-Root  37: E(AI)=    8.014 eV -> LF-Root  37:     8.150 eV    S= 1.000 Delta=   -0.136 eV
   AI-Root  38: E(AI)=    8.634 eV -> LF-Root  38:     8.660 eV    S= 0.994 Delta=   -0.026 eV
   AI-Root  39: E(AI)=    8.652 eV -> LF-Root  39:     8.664 eV    S= 0.994 Delta=   -0.012 eV
   RMS error for this block =     0.067 eV =     538.9 cm**-1 

Total RMS error g=     0.069 eV =     560.4 cm**-1
Note: Dropped RMS error for the reference energy.

Confidence intervals (95%) computed from the square root of the
diagonal elements of the covariance matrix:
H(dz2   ,dz2   )=  0.000270951 a.u. =     0.007 eV =      59.5 cm**-1
H(dxz   ,dz2   )=  0.000229228 a.u. =     0.006 eV =      50.3 cm**-1
H(dxz   ,dxz   )=  0.000270951 a.u. =     0.007 eV =      59.5 cm**-1
H(dyz   ,dz2   )=  0.000229228 a.u. =     0.006 eV =      50.3 cm**-1
H(dyz   ,dxz   )=  0.000229228 a.u. =     0.006 eV =      50.3 cm**-1
H(dyz   ,dyz   )=  0.000270951 a.u. =     0.007 eV =      59.5 cm**-1
H(dx2-y2,dz2   )=  0.000229228 a.u. =     0.006 eV =      50.3 cm**-1
H(dx2-y2,dxz   )=  0.000229228 a.u. =     0.006 eV =      50.3 cm**-1
H(dx2-y2,dyz   )=  0.000229228 a.u. =     0.006 eV =      50.3 cm**-1
H(dx2-y2,dx2-y2)=  0.000270951 a.u. =     0.007 eV =      59.5 cm**-1
H(dxy   ,dz2   )=  0.000229228 a.u. =     0.006 eV =      50.3 cm**-1
H(dxy   ,dxz   )=  0.000229228 a.u. =     0.006 eV =      50.3 cm**-1
H(dxy   ,dyz   )=  0.000229228 a.u. =     0.006 eV =      50.3 cm**-1
H(dxy   ,dx2-y2)=  0.000229228 a.u. =     0.006 eV =      50.3 cm**-1
H(dxy   ,dxy   )=  0.000270951 a.u. =     0.007 eV =      59.5 cm**-1
F2dd            =  0.000973035 a.u. =     0.026 eV =     213.6 cm**-1
F4dd            =  0.001411246 a.u. =     0.038 eV =     309.7 cm**-1
Pearson's correlation coefficient =    1.000 (should be close to 1)

----------------------------------------------
SPIN ORBIT COUPLING (based on CASSCF orbitals)
----------------------------------------------

AI-SOC-X integrals (cm-1)
                  0          1          2          3          4    
      0       0.000000  -5.863116 896.643352  -0.510013   0.067799
      1       5.863116   0.000000  -0.254781  -5.917334 504.355952
      2     -896.643352   0.254781  -0.000000 -494.913378   0.587082
      3       0.510013   5.917334 494.913378   0.000000   0.016773
      4      -0.067799 -504.355952  -0.587082  -0.016773  -0.000000
AI-SOC-Y integrals (cm-1)
                  0          1          2          3          4    
      0      -0.000000 -859.839091   1.812106   0.454366  -1.626551
      1     859.839091   0.000000  -0.934297 -487.752701   2.843516
      2      -1.812106   0.934297   0.000000   7.811726 -512.846398
      3      -0.454366 487.752701  -7.811726  -0.000000   0.101792
      4       1.626551  -2.843516 512.846398  -0.101792  -0.000000
AI-SOC-Z integrals (cm-1)
                  0          1          2          3          4    
      0       0.000000  -0.250014  -0.086759   6.634622 -30.073392
      1       0.250014   0.000000 -511.571861  -4.889906  -0.729930
      2       0.086759 511.571861  -0.000000  -1.516977   3.834339
      3      -6.634622   4.889906   1.516977   0.000000 -991.762788
      4      30.073392   0.729930  -3.834339 991.762788  -0.000000

Fit to the SOC matrix elements
a = 15.000000
b =     0.935 eV =    7537.3 cm**-1
SOC constant zeta =     0.062 eV =     502.5 cm**-1


LF-SOC-X integrals (cm-1)
                  0          1          2          3          4    
      0       0.000000  -0.000000 870.330439  -0.000000  -0.000000
      1       0.000000   0.000000  -0.000000  -0.000000 502.485513
      2     -870.330439   0.000000   0.000000 -502.485513  -0.000000
      3       0.000000   0.000000 502.485513   0.000000  -0.000000
      4       0.000000 -502.485513   0.000000   0.000000   0.000000
LF-SOC-Y integrals (cm-1)
                  0          1          2          3          4    
      0       0.000000 -870.330439  -0.000000  -0.000000  -0.000000
      1     870.330439   0.000000  -0.000000 -502.485513  -0.000000
      2       0.000000   0.000000   0.000000  -0.000000 -502.485513
      3       0.000000 502.485513   0.000000   0.000000  -0.000000
      4       0.000000   0.000000 502.485513   0.000000   0.000000
LF-SOC-Z integrals (cm-1)
                  0          1          2          3          4    
      0       0.000000  -0.000000  -0.000000  -0.000000  -0.000000
      1       0.000000   0.000000 -502.485513  -0.000000  -0.000000
      2       0.000000 502.485513   0.000000  -0.000000  -0.000000
      3       0.000000   0.000000   0.000000   0.000000 -1004.971026
      4       0.000000   0.000000   0.000000 1004.971026   0.000000

RMS error of nonzero matrix elements =    9.8 cm**-1


-----SOC-CONSTANTS-----
---All Values in cm-1---
ZETA_D = 502.49 
------------------------




---AILFT COMPLETED SUCCESFULLY!---

--------------
CASSCF TIMINGS
--------------

Total time                       ...      256.5 sec
Sum of individual times          ...      251.5 sec ( 98.0%)

Calculation of AO operators
   F(Core) operator              ...       99.5 sec ( 38.8%)
   G(Act) operator               ...       95.4 sec ( 37.2%)
   J(AO) operators               ...        0.0 sec (  0.0%)
Calculation of MO transformed quantities
   J(MO) operators               ...       13.4 sec (  5.2%)
   (pq|rs) integrals             ...        0.0 sec (  0.0%)
   AO->MO one electron integrals ...        0.5 sec (  0.2%)
Configuration interaction steps
   CI-setup phase                ...        0.0 sec (  0.0%)
   CI-solution phase             ...        1.0 sec (  0.4%)
   Generation of densities       ...        0.1 sec (  0.0%)
Orbital improvement steps
   Orbital gradient              ...        0.2 sec (  0.1%)
   O(1) converger                ...        2.4 sec (  0.9%)
Properties                       ...       28.1 sec ( 11.0%)
   SOC integral calculation      ...       11.0 sec (  4.3%)
   SSC RMEs (incl. integrals)    ...        0.0 sec (  0.0%)
   SOC RMEs                      ...        0.1 sec (  0.0%)

Maximum memory used throughout the entire CASSCF-calculation: 354.1 MB

-------------------------   --------------------
FINAL SINGLE POINT ENERGY     -1549.084674857272
-------------------------   --------------------


                            ***************************************
                            *     ORCA property calculations      *
                            ***************************************

                                    ---------------------
                                    Active property flags
                                    ---------------------
   (+) Dipole Moment


------------------------------------------------------------------------------
                       ORCA ELECTRIC PROPERTIES CALCULATION
------------------------------------------------------------------------------

Dipole Moment Calculation                       ... on
Quadrupole Moment Calculation                   ... off
Polarizability Calculation                      ... off
GBWName                                         ... rho.gbw
Electron density                                ... rho.scfp
The origin for moment calculation is the CENTER OF MASS  = ( 0.025558, -0.181388 -1.219235)

-------------
DIPOLE MOMENT
-------------
                                X             Y             Z
Electronic contribution:      0.23699      -1.59851     -10.85781
Nuclear contribution   :     -0.21581       1.47005       9.97926
                        -----------------------------------------
Total Dipole Moment    :      0.02118      -0.12846      -0.87855
                        -----------------------------------------
Magnitude (a.u.)       :      0.88814
Magnitude (Debye)      :      2.25748



--------------------
Rotational spectrum 
--------------------
 
Rotational constants in cm-1:     0.192426     0.058109     0.050789 
Rotational constants in MHz :  5768.800869  1742.065509  1522.601086 

 Dipole components along the rotational axes: 
x,y,z [a.u.] :     0.000033     0.888140    -0.002606 
x,y,z [Debye]:     0.000083     2.257472    -0.006623 

 

Timings for individual modules:

Sum of individual times         ...      275.466 sec (=   4.591 min)
GTO integral calculation        ...        4.265 sec (=   0.071 min)   1.5 %
Relativistic integrals          ...        3.749 sec (=   0.062 min)   1.4 %
SCF iterations                  ...        4.062 sec (=   0.068 min)   1.5 %
CASSCF iterations               ...      263.389 sec (=   4.390 min)  95.6 %
                             ****ORCA TERMINATED NORMALLY****
TOTAL RUN TIME: 0 days 0 hours 4 minutes 39 seconds 833 msec
