
                                 *****************
                                 * O   R   C   A *
                                 *****************

                                            #,                                       
                                            ###                                      
                                            ####                                     
                                            #####                                    
                                            ######                                   
                                           ########,                                 
                                     ,,################,,,,,                         
                               ,,#################################,,                 
                          ,,##########################################,,             
                       ,#########################################, ''#####,          
                    ,#############################################,,   '####,        
                  ,##################################################,,,,####,       
                ,###########''''           ''''###############################       
              ,#####''   ,,,,##########,,,,          '''####'''          '####       
            ,##' ,,,,###########################,,,                        '##       
           ' ,,###''''                  '''############,,,                           
         ,,##''                                '''############,,,,        ,,,,,,###''
      ,#''                                            '''#######################'''  
     '                                                          ''''####''''         
             ,#######,   #######,   ,#######,      ##                                
            ,#'     '#,  ##    ##  ,#'     '#,    #''#        ######   ,####,        
            ##       ##  ##   ,#'  ##            #'  '#       #        #'  '#        
            ##       ##  #######   ##           ,######,      #####,   #    #        
            '#,     ,#'  ##    ##  '#,     ,#' ,#      #,         ##   #,  ,#        
             '#######'   ##     ##  '#######'  #'      '#     #####' # '####'        



                  #######################################################
                  #                        -***-                        #
                  #          Department of theory and spectroscopy      #
                  #    Directorship and core code : Frank Neese         #
                  #        Max Planck Institute fuer Kohlenforschung    #
                  #                Kaiser Wilhelm Platz 1               #
                  #                 D-45470 Muelheim/Ruhr               #
                  #                      Germany                        #
                  #                                                     #
                  #                  All rights reserved                #
                  #                        -***-                        #
                  #######################################################


                         Program Version 5.0.4 -  RELEASE  -


 With contributions from (in alphabetic order):
   Daniel Aravena         : Magnetic Suceptibility
   Michael Atanasov       : Ab Initio Ligand Field Theory (pilot matlab implementation)
   Alexander A. Auer      : GIAO ZORA, VPT2 properties, NMR spectrum
   Ute Becker             : Parallelization
   Giovanni Bistoni       : ED, misc. LED, open-shell LED, HFLD
   Martin Brehm           : Molecular dynamics
   Dmytro Bykov           : SCF Hessian
   Vijay G. Chilkuri      : MRCI spin determinant printing, contributions to CSF-ICE
   Dipayan Datta          : RHF DLPNO-CCSD density
   Achintya Kumar Dutta   : EOM-CC, STEOM-CC
   Dmitry Ganyushin       : Spin-Orbit,Spin-Spin,Magnetic field MRCI
   Miquel Garcia          : C-PCM and meta-GGA Hessian, CC/C-PCM, Gaussian charge scheme
   Yang Guo               : DLPNO-NEVPT2, F12-NEVPT2, CIM, IAO-localization
   Andreas Hansen         : Spin unrestricted coupled pair/coupled cluster methods
   Benjamin Helmich-Paris : MC-RPA, TRAH-SCF, COSX integrals
   Lee Huntington         : MR-EOM, pCC
   Robert Izsak           : Overlap fitted RIJCOSX, COSX-SCS-MP3, EOM
   Marcus Kettner         : VPT2
   Christian Kollmar      : KDIIS, OOCD, Brueckner-CCSD(T), CCSD density, CASPT2, CASPT2-K
   Simone Kossmann        : Meta GGA functionals, TD-DFT gradient, OOMP2, MP2 Hessian
   Martin Krupicka        : Initial AUTO-CI
   Lucas Lang             : DCDCAS
   Marvin Lechner         : AUTO-CI (C++ implementation), FIC-MRCC
   Dagmar Lenk            : GEPOL surface, SMD
   Dimitrios Liakos       : Extrapolation schemes; Compound Job, initial MDCI parallelization
   Dimitrios Manganas     : Further ROCIS development; embedding schemes
   Dimitrios Pantazis     : SARC Basis sets
   Anastasios Papadopoulos: AUTO-CI, single reference methods and gradients
   Taras Petrenko         : DFT Hessian,TD-DFT gradient, ASA, ECA, R-Raman, ABS, FL, XAS/XES, NRVS
   Peter Pinski           : DLPNO-MP2, DLPNO-MP2 Gradient
   Christoph Reimann      : Effective Core Potentials
   Marius Retegan         : Local ZFS, SOC
   Christoph Riplinger    : Optimizer, TS searches, QM/MM, DLPNO-CCSD(T), (RO)-DLPNO pert. Triples
   Tobias Risthaus        : Range-separated hybrids, TD-DFT gradient, RPA, STAB
   Michael Roemelt        : Original ROCIS implementation
   Masaaki Saitow         : Open-shell DLPNO-CCSD energy and density
   Barbara Sandhoefer     : DKH picture change effects
   Avijit Sen             : IP-ROCIS
   Kantharuban Sivalingam : CASSCF convergence, NEVPT2, FIC-MRCI
   Bernardo de Souza      : ESD, SOC TD-DFT
   Georgi Stoychev        : AutoAux, RI-MP2 NMR, DLPNO-MP2 response
   Willem Van den Heuvel  : Paramagnetic NMR
   Boris Wezisla          : Elementary symmetry handling
   Frank Wennmohs         : Technical directorship


 We gratefully acknowledge several colleagues who have allowed us to
 interface, adapt or use parts of their codes:
   Stefan Grimme, W. Hujo, H. Kruse, P. Pracht,  : VdW corrections, initial TS optimization,
                  C. Bannwarth, S. Ehlert          DFT functionals, gCP, sTDA/sTD-DF
   Ed Valeev, F. Pavosevic, A. Kumar             : LibInt (2-el integral package), F12 methods
   Garnet Chan, S. Sharma, J. Yang, R. Olivares  : DMRG
   Ulf Ekstrom                                   : XCFun DFT Library
   Mihaly Kallay                                 : mrcc  (arbitrary order and MRCC methods)
   Jiri Pittner, Ondrej Demel                    : Mk-CCSD
   Frank Weinhold                                : gennbo (NPA and NBO analysis)
   Christopher J. Cramer and Donald G. Truhlar   : smd solvation model
   Lars Goerigk                                  : TD-DFT with DH, B97 family of functionals
   V. Asgeirsson, H. Jonsson                     : NEB implementation
   FAccTs GmbH                                   : IRC, NEB, NEB-TS, DLPNO-Multilevel, CI-OPT
                                                   MM, QMMM, 2- and 3-layer-ONIOM, Crystal-QMMM,
                                                   LR-CPCM, SF, NACMEs, symmetry and pop. for TD-DFT,
                                                   nearIR, NL-DFT gradient (VV10), updates on ESD,
                                                   ML-optimized integration grids
   S Lehtola, MJT Oliveira, MAL Marques          : LibXC Library
   Liviu Ungur et al                             : ANISO software


 Your calculation uses the libint2 library for the computation of 2-el integrals
 For citations please refer to: http://libint.valeyev.net

 Your ORCA version has been built with support for libXC version: 5.1.0
 For citations please refer to: https://tddft.org/programs/libxc/

 This ORCA versions uses:
   CBLAS   interface :  Fast vector & matrix operations
   LAPACKE interface :  Fast linear algebra routines
   SCALAPACK package :  Parallel linear algebra routines
   Shared memory     :  Shared parallel matrices
   BLAS/LAPACK       :  OpenBLAS 0.3.15  USE64BITINT DYNAMIC_ARCH NO_AFFINITY Zen SINGLE_THREADED
        Core in use  :  Zen
   Copyright (c) 2011-2014, The OpenBLAS Project




***************************************
The coordinates will be read from file: geo.xyz
***************************************


================================================================================

----- Orbital basis set information -----
Your calculation utilizes the basis: DKH-def2-TZVPP
   Exponents from def2-TZVPP [F. Weigend and R. Ahlrichs, Phys. Chem. Chem. Phys. 7, 3297 (2005)],
   recontracted for DKH2 by D. A. Pantazis.

----- AuxJ basis set information -----
Your calculation utilizes the AutoAux generation procedure.
  G. L. Stoychev, A. A. Auer, F. Neese, J. Chem. Theory Comput. 13, 554 (2017)

----- AuxC basis set information -----
Your calculation utilizes the AutoAux generation procedure.
  G. L. Stoychev, A. A. Auer, F. Neese, J. Chem. Theory Comput. 13, 554 (2017)

----- AuxJK basis set information -----
Your calculation utilizes the AutoAux generation procedure.
  G. L. Stoychev, A. A. Auer, F. Neese, J. Chem. Theory Comput. 13, 554 (2017)

================================================================================
                                        WARNINGS
                       Please study these warnings very carefully!
================================================================================


INFO   : the flag for use of the SHARK integral package has been found!

================================================================================
                                       INPUT FILE
================================================================================
NAME = rho.inp
|  1> !CASSCF  DKH DKH-def2-TZVPP  RIJCOSX NoSFitting VeryTightSCF autoaux moread SlowConv
|  2> %moinp "orb.gbw"
|  3> %pal
|  4> nprocs 10
|  5> end
|  6> %maxcore 4000
|  7> # swap
|  8> #%scf
|  9> # Rotate
| 10> #  { 53, 49 }
| 11> # end
| 12> #end
| 13> #
| 14> %rel
| 15>  picturechange 2
| 16> end
| 17> %casscf
| 18>  nel  7
| 19>  norb 5
| 20>  mult 4,2
| 21>  nroots 10,40
| 22>  maxiter 100
| 23>  ActOrbs dOrbs
| 24>  rel
| 25>   printlevel 3
| 26>   dosoc true
| 27>   gtensor true
| 28>   quad true
| 29>  end
| 30> end
| 31> * xyzfile 0 4 geo.xyz *
| 32> 
| 33>                          ****END OF INPUT****
================================================================================

                       ****************************
                       * Single Point Calculation *
                       ****************************

---------------------------------
CARTESIAN COORDINATES (ANGSTROEM)
---------------------------------
  Co    -0.009877    0.658458    0.706810
  C      1.833302   -0.027084    0.463763
  C      2.452573    0.549727   -0.766697
  H      1.791383   -1.122588    0.380216
  H      2.442953    0.246983    1.338699
  F      2.527464    1.921365   -0.699742
  F      3.723332    0.113716   -1.014958
  F      1.721366    0.257116   -1.889949
  C     -1.833173    0.428727   -0.033850
  C     -2.452727   -0.836448    0.461725
  H     -1.760707    0.402057   -1.130663
  H     -2.461122    1.281458    0.267464
  F     -2.573231   -0.838112    1.831399
  F     -3.704943   -1.078612   -0.028376
  F     -1.696593   -1.934923    0.138998

----------------------------
CARTESIAN COORDINATES (A.U.)
----------------------------
  NO LB      ZA    FRAG     MASS         X           Y           Z
   0 Co   27.0000    0    58.930   -0.018664    1.244305    1.335677
   1 C     6.0000    0    12.011    3.464439   -0.051180    0.876385
   2 C     6.0000    0    12.011    4.634691    1.038833   -1.448848
   3 H     1.0000    0     1.008    3.385223   -2.121384    0.718504
   4 H     1.0000    0     1.008    4.616511    0.466730    2.529774
   5 F     9.0000    0    18.998    4.776215    3.630854   -1.322320
   6 F     9.0000    0    18.998    7.036078    0.214892   -1.917993
   7 F     9.0000    0    18.998    3.252911    0.485878   -3.571486
   8 C     6.0000    0    12.011   -3.464194    0.810177   -0.063968
   9 C     6.0000    0    12.011   -4.634983   -1.580658    0.872534
  10 H     1.0000    0     1.008   -3.327254    0.759778   -2.136643
  11 H     1.0000    0     1.008   -4.650847    2.421605    0.505435
  12 F     9.0000    0    18.998   -4.862702   -1.583802    3.460842
  13 F     9.0000    0    18.998   -7.001328   -2.038281   -0.053622
  14 F     9.0000    0    18.998   -3.206097   -3.656475    0.262668

--------------------------------
INTERNAL COORDINATES (ANGSTROEM)
--------------------------------
 Co     0   0   0     0.000000000000     0.00000000     0.00000000
 C      1   0   0     1.981501085305     0.00000000     0.00000000
 C      2   1   0     1.493398568750   110.68067577     0.00000000
 H      2   1   3     1.099485076438   108.57671353   239.46579586
 H      2   1   3     1.101044160116   109.35763286   120.35352907
 F      3   2   1     1.375312285314   111.57239461    60.36445070
 F      3   2   1     1.366224267333   114.34017558   180.70647885
 F      3   2   1     1.371852147557   111.79069932   301.40502779
 C      1   2   3     1.981353543178   140.35602339    75.09199178
 C      9   1   2     1.493355616840   110.85208872    76.36173746
 H      9   1   2     1.099527196561   108.36419193   315.87433528
 H      9   1   2     1.101027499036   109.43480392   196.85288715
 F     10   9   1     1.374965349030   111.58997200    60.90232051
 F     10   9   1     1.366340476260   114.28912233   181.24414282
 F     10   9   1     1.372056744999   111.81328054   301.91382481

---------------------------
INTERNAL COORDINATES (A.U.)
---------------------------
 Co     0   0   0     0.000000000000     0.00000000     0.00000000
 C      1   0   0     3.744494385294     0.00000000     0.00000000
 C      2   1   0     2.822114303727   110.68067577     0.00000000
 H      2   1   3     2.077725682802   108.57671353   239.46579586
 H      2   1   3     2.080671923973   109.35763286   120.35352907
 F      3   2   1     2.598963567860   111.57239461    60.36445070
 F      3   2   1     2.581789702777   114.34017558   180.70647885
 F      3   2   1     2.592424855115   111.79069932   301.40502779
 C      1   2   3     3.744215571082   140.35602339    75.09199178
 C      9   1   2     2.822033136382   110.85208872    76.36173746
 H      9   1   2     2.077805278298   108.36419193   315.87433528
 H      9   1   2     2.080640439094   109.43480392   196.85288715
 F     10   9   1     2.598307953298   111.58997200    60.90232051
 F     10   9   1     2.582009305822   114.28912233   181.24414282
 F     10   9   1     2.592811488248   111.81328054   301.91382481

---------------------
BASIS SET INFORMATION
---------------------
There are 4 groups of distinct atoms

 Group   1 Type Co  : 17s12p7d2f1g contracted to 10s7p4d2f1g pattern {8111111111/6111111/4111/11/1}
 Group   2 Type C   : 11s6p2d1f contracted to 6s3p2d1f pattern {611111/411/11/1}
 Group   3 Type H   : 5s2p1d contracted to 3s2p1d pattern {311/11/1}
 Group   4 Type F   : 11s6p2d1f contracted to 6s3p2d1f pattern {611111/411/11/1}

Atom   0Co   basis set group =>   1
Atom   1C    basis set group =>   2
Atom   2C    basis set group =>   2
Atom   3H    basis set group =>   3
Atom   4H    basis set group =>   3
Atom   5F    basis set group =>   4
Atom   6F    basis set group =>   4
Atom   7F    basis set group =>   4
Atom   8C    basis set group =>   2
Atom   9C    basis set group =>   2
Atom  10H    basis set group =>   3
Atom  11H    basis set group =>   3
Atom  12F    basis set group =>   4
Atom  13F    basis set group =>   4
Atom  14F    basis set group =>   4
---------------------------------
AUXILIARY/J BASIS SET INFORMATION
---------------------------------
There are 4 groups of distinct atoms

 Group   1 Type Co  : 22s18p17d17f16g6h3i contracted to 22s18p17d17f16g6h3i pattern {1111111111111111111111/111111111111111111/11111111111111111/11111111111111111/1111111111111111/111111/111}
 Group   2 Type C   : 16s13p12d7f3g contracted to 16s13p12d7f3g pattern {1111111111111111/1111111111111/111111111111/1111111/111}
 Group   3 Type H   : 11s4p3d2f contracted to 11s4p3d2f pattern {11111111111/1111/111/11}
 Group   4 Type F   : 16s13p12d7f3g contracted to 16s13p12d7f3g pattern {1111111111111111/1111111111111/111111111111/1111111/111}

Atom   0Co   basis set group =>   1
Atom   1C    basis set group =>   2
Atom   2C    basis set group =>   2
Atom   3H    basis set group =>   3
Atom   4H    basis set group =>   3
Atom   5F    basis set group =>   4
Atom   6F    basis set group =>   4
Atom   7F    basis set group =>   4
Atom   8C    basis set group =>   2
Atom   9C    basis set group =>   2
Atom  10H    basis set group =>   3
Atom  11H    basis set group =>   3
Atom  12F    basis set group =>   4
Atom  13F    basis set group =>   4
Atom  14F    basis set group =>   4
---------------------------------
AUXILIARY/C BASIS SET INFORMATION
---------------------------------
There are 4 groups of distinct atoms

 Group   1 Type Co  : 22s18p17d17f16g6h3i contracted to 22s18p17d17f16g6h3i pattern {1111111111111111111111/111111111111111111/11111111111111111/11111111111111111/1111111111111111/111111/111}
 Group   2 Type C   : 16s13p12d7f3g contracted to 16s13p12d7f3g pattern {1111111111111111/1111111111111/111111111111/1111111/111}
 Group   3 Type H   : 11s4p3d2f contracted to 11s4p3d2f pattern {11111111111/1111/111/11}
 Group   4 Type F   : 16s13p12d7f3g contracted to 16s13p12d7f3g pattern {1111111111111111/1111111111111/111111111111/1111111/111}

Atom   0Co   basis set group =>   1
Atom   1C    basis set group =>   2
Atom   2C    basis set group =>   2
Atom   3H    basis set group =>   3
Atom   4H    basis set group =>   3
Atom   5F    basis set group =>   4
Atom   6F    basis set group =>   4
Atom   7F    basis set group =>   4
Atom   8C    basis set group =>   2
Atom   9C    basis set group =>   2
Atom  10H    basis set group =>   3
Atom  11H    basis set group =>   3
Atom  12F    basis set group =>   4
Atom  13F    basis set group =>   4
Atom  14F    basis set group =>   4
----------------------------------
AUXILIARY/JK BASIS SET INFORMATION
----------------------------------
There are 4 groups of distinct atoms

 Group   1 Type Co  : 22s18p17d17f16g6h3i contracted to 22s18p17d17f16g6h3i pattern {1111111111111111111111/111111111111111111/11111111111111111/11111111111111111/1111111111111111/111111/111}
 Group   2 Type C   : 16s13p12d7f3g contracted to 16s13p12d7f3g pattern {1111111111111111/1111111111111/111111111111/1111111/111}
 Group   3 Type H   : 11s4p3d2f contracted to 11s4p3d2f pattern {11111111111/1111/111/11}
 Group   4 Type F   : 16s13p12d7f3g contracted to 16s13p12d7f3g pattern {1111111111111111/1111111111111/111111111111/1111111/111}

Atom   0Co   basis set group =>   1
Atom   1C    basis set group =>   2
Atom   2C    basis set group =>   2
Atom   3H    basis set group =>   3
Atom   4H    basis set group =>   3
Atom   5F    basis set group =>   4
Atom   6F    basis set group =>   4
Atom   7F    basis set group =>   4
Atom   8C    basis set group =>   2
Atom   9C    basis set group =>   2
Atom  10H    basis set group =>   3
Atom  11H    basis set group =>   3
Atom  12F    basis set group =>   4
Atom  13F    basis set group =>   4
Atom  14F    basis set group =>   4


           ************************************************************
           *        Program running with 10 parallel MPI-processes    *
           *              working on a common directory               *
           ************************************************************
------------------------------------------------------------------------------
                           ORCA GTO INTEGRAL CALCULATION
                           -- RI-GTO INTEGRALS CHOSEN --
------------------------------------------------------------------------------
------------------------------------------------------------------------------
                   ___                                                        
                  /   \      - P O W E R E D   B Y -                         
                 /     \                                                     
                 |  |  |   _    _      __       _____    __    __             
                 |  |  |  | |  | |    /  \     |  _  \  |  |  /  |          
                  \  \/   | |  | |   /    \    | | | |  |  | /  /          
                 / \  \   | |__| |  /  /\  \   | |_| |  |  |/  /          
                |  |  |   |  __  | /  /__\  \  |    /   |      \           
                |  |  |   | |  | | |   __   |  |    \   |  |\   \          
                \     /   | |  | | |  |  |  |  | |\  \  |  | \   \       
                 \___/    |_|  |_| |__|  |__|  |_| \__\ |__|  \__/        
                                                                              
                      - O R C A' S   B I G   F R I E N D -                    
                                      &                                       
                       - I N T E G R A L  F E E D E R -                       
                                                                              
 v1 FN, 2020, v2 2021                                                         
------------------------------------------------------------------------------


Reading SHARK input file rho.SHARKINP.tmp ... ok
----------------------
SHARK INTEGRAL PACKAGE
----------------------

Number of atoms                             ...     15
Number of basis functions                   ...    450
Number of shells                            ...    168
Maximum angular momentum                    ...      4
Integral batch strategy                     ... SHARK/LIBINT Hybrid
RI-J (if used) integral strategy            ... SPLIT-RIJ (Revised 2003 algorithm where possible)
Printlevel                                  ...      1
Contraction scheme used                     ... SEGMENTED contraction
Coulomb Range Separation                    ... NOT USED
Exchange Range Separation                   ... NOT USED
Finite Nucleus Model                        ... NOT USED
Auxiliary Coulomb fitting basis             ... AVAILABLE
   # of basis functions in Aux-J            ...   2647
   # of shells in Aux-J                     ...    689
   Maximum angular momentum in Aux-J        ...      6
Auxiliary J/K fitting basis                 ... AVAILABLE
   # of basis functions in Aux-JK           ...   2647
   # of shells in Aux-JK                    ...    689
   Maximum angular momentum in Aux-JK       ...      6
Auxiliary Correlation fitting basis         ... AVAILABLE
   # of basis functions in Aux-C            ...   2647
   # of shells in Aux-C                     ...    689
   Maximum angular momentum in Aux-C        ...      6
Auxiliary 'external' fitting basis          ... NOT available
Integral threshold                          ...     1.000000e-12
Primitive cut-off                           ...     1.000000e-14
Primitive pair pre-selection threshold      ...     1.000000e-14

Calculating pre-screening integrals         ... done (  0.0 sec) Dimension = 168
Organizing shell pair data                  ... done (  0.1 sec)
Shell pair information
Total number of shell pairs                 ...     14196
Shell pairs after pre-screening             ...     10816
Total number of primitive shell pairs       ...     37127
Primitive shell pairs kept                  ...     21013
          la=0 lb=0:   2359 shell pairs
          la=1 lb=0:   2951 shell pairs
          la=1 lb=1:    924 shell pairs
          la=2 lb=0:   1670 shell pairs
          la=2 lb=1:   1045 shell pairs
          la=2 lb=2:    315 shell pairs
          la=3 lb=0:    686 shell pairs
          la=3 lb=1:    432 shell pairs
          la=3 lb=2:    247 shell pairs
          la=3 lb=3:     53 shell pairs
          la=4 lb=0:     58 shell pairs
          la=4 lb=1:     43 shell pairs
          la=4 lb=2:     22 shell pairs
          la=4 lb=3:     10 shell pairs
          la=4 lb=4:      1 shell pairs

Calculating one electron integrals          ... done (  0.1 sec)
Calculating RI/J V-Matrix + Cholesky decomp.... done (  0.4 sec)
Calculating RI/JK V-Matrix + Cholesky decomp... done (  0.3 sec)
Calculating RI/C V-Matrix + Cholesky decomp.... done (  0.3 sec)
Calculating Nuclear repulsion               ... done (  0.0 sec) ENN=    937.280544745618 Eh

SHARK setup successfully completed in   2.1 seconds

Maximum memory used throughout the entire GTOINT-calculation: 44.9 MB


           ************************************************************
           *        Program running with 10 parallel MPI-processes    *
           *              working on a common directory               *
           ************************************************************
------------------------------------------------------------------------------
                          ORCA RELATIVISTIC HAMILTONIAN
------------------------------------------------------------------------------

Relativistic Method            ... DKH
Order of DKH treatment         ...   2
Treatment of potential         ... V(e,N)
Eps parameter for DKH          ...   0.00000000010000
Nucleus model                  ... Point Nucleus
Speed of light used            ... 137.03598950000000


            ************************************************
            *        DOUGLAS-KROLL-HESS HAMILTONIAN        *
            *   Programmed by FN according to literature   *
            *        procedures. Special thanks to         *
            *       B.A. Hess, M. Reiher and A. Wolf       *
            *     University Erlangen-Nuernberg/Bonn       *
            ************************************************

Uncontracting the basis (first version)        ... done
Number of contracted basis functions           ...  450
Number of uncontracted basis functions         ...  635
Initializing the DKH file                      ... done
Calculating the relativistic integrals         ... done
Storing DKH matrices                           ... done
Code used for DKH trafo                        ... ORCA
Computing the DKH transformation               ... done
Storing the transformation variables           ... done
Transforming V and pVp to p**2 space           ... done
First transformation of V and pVp              ... done
Second transformation of Veff                  ... done
Adding kinetic energy                          ... done
Back transformation of Veff to r-space         ... done
Recovering DKH matrices                        ... done
Recontracting the H-matrix (first version)     ... done
Computing the DKH correction to the H-matrix   ... done
Reading the original H-matrix                  ... done
Adding DKH correction to the H-matrix          ... done
Storing the new modified H-matrix              ... done

Maximum memory used throughout the entire REL-calculation: 76.6 MB


           ************************************************************
           *        Program running with 10 parallel MPI-processes    *
           *              working on a common directory               *
           ************************************************************
-------------------------------------------------------------------------------
                                 ORCA SCF
-------------------------------------------------------------------------------

------------
SCF SETTINGS
------------
Hamiltonian:
 Ab initio Hamiltonian  Method          .... Hartree-Fock(GTOs)
 RI-approximation to the Coulomb term is turned on
   Number of AuxJ basis functions       .... 2647
   RIJ-COSX (HFX calculated with COS-X)).... on

Relativistic Settings:
 Scalar relativistic method             .... Douglas-Kroll-Hess
 Order of DKH procedure    Order        ....    2
 Mode of DKH-treatment                  .... V=V(e,N)
 Speed of light used       Velit        ....       137.035989
 Cutoff-constant           Eps          ....            1e-10 


General Settings:
 Integral files         IntName         .... rho
 Hartree-Fock type      HFTyp           .... CASSCF
 Total Charge           Charge          ....    0
 Multiplicity           Mult            ....    4
 Number of Electrons    NEL             ....  109
 Basis Dimension        Dim             ....  450
 Nuclear Repulsion      ENuc            ....    937.2805447456 Eh


Diagonalization of the overlap matrix:
Smallest eigenvalue                        ... 2.501e-04
Time for diagonalization                   ...    0.026 sec
Threshold for overlap eigenvalues          ... 1.000e-08
Number of eigenvalues below threshold      ... 0
Time for construction of square roots      ...    0.014 sec
Total time needed                          ...    0.041 sec

---------------------
INITIAL GUESS: MOREAD
---------------------
Guess MOs are being read from file: orb.gbw
Input Geometry matches current geometry (good)
Input basis set matches current basis set (good)
MOs were renormalized
Gram-Schmidt orthogonalization of all MOs with pivot on actives
                      ------------------
                      INITIAL GUESS DONE (   0.6 sec)
                      ------------------
--------------------
COSX GRID GENERATION
--------------------

GRIDX 1
-------
General Integration Accuracy     IntAcc      ... 3.816
Radial Grid Type                 RadialGrid  ... OptM3 with GC (2021)
Angular Grid (max. ang.)         AngularGrid ... 1 (Lebedev-50)
Angular grid pruning method      GridPruning ... 4 (adaptive)
Weight generation scheme         WeightScheme... Becke
Basis function cutoff            BFCut       ... 1.0000e-12
Integration weight cutoff        WCut        ... 1.0000e-14
Angular grids for H and He will be reduced by one unit
Partially contracted basis set               ... on
Rotationally invariant grid construction     ... off

Total number of grid points                  ...    10536
Total number of batches                      ...      171
Average number of points per batch           ...       61
Average number of grid points per atom       ...      702

GRIDX 2
-------
General Integration Accuracy     IntAcc      ... 4.020
Radial Grid Type                 RadialGrid  ... OptM3 with GC (2021)
Angular Grid (max. ang.)         AngularGrid ... 2 (Lebedev-110)
Angular grid pruning method      GridPruning ... 4 (adaptive)
Weight generation scheme         WeightScheme... Becke
Basis function cutoff            BFCut       ... 1.0000e-12
Integration weight cutoff        WCut        ... 1.0000e-14
Angular grids for H and He will be reduced by one unit
Partially contracted basis set               ... on
Rotationally invariant grid construction     ... off

Total number of grid points                  ...    23977
Total number of batches                      ...      382
Average number of points per batch           ...       62
Average number of grid points per atom       ...     1598

GRIDX 3
-------
General Integration Accuracy     IntAcc      ... 4.338
Radial Grid Type                 RadialGrid  ... OptM3 with GC (2021)
Angular Grid (max. ang.)         AngularGrid ... 3 (Lebedev-194)
Angular grid pruning method      GridPruning ... 4 (adaptive)
Weight generation scheme         WeightScheme... Becke
Basis function cutoff            BFCut       ... 1.0000e-12
Integration weight cutoff        WCut        ... 1.0000e-14
Angular grids for H and He will be reduced by one unit
Partially contracted basis set               ... on
Rotationally invariant grid construction     ... off

Total number of grid points                  ...    53150
Total number of batches                      ...      839
Average number of points per batch           ...       63
Average number of grid points per atom       ...     3543

Time for X-Grid setup             =    0.441 sec



 ... the calculation is a CASSCF calculation -I'm leaving here GOOD LUCK!!!



           ************************************************************
           *        Program running with 10 parallel MPI-processes    *
           *              working on a common directory               *
           ************************************************************
-------------------------------------------------------------------------------
                              ORCA-CASSCF
-------------------------------------------------------------------------------

Setting up the integral package       ... done
Setting up the integral package (RI)  ... done
Building the CAS space                ... done (10 configurations for Mult=4)
Building the CAS space                ... done (30 configurations for Mult=2)

SYSTEM-SPECIFIC SETTINGS:
Number of active electrons          ...    7
Number of active orbitals           ...    5
Total number of electrons           ...  109
Total number of orbitals            ...  450
Total number aux. functions         ... 2647

Determined orbital ranges:
   Internal       0 -   50 (  51 orbitals)
   Active        51 -   55 (   5 orbitals)
   External      56 -  449 ( 394 orbitals)
Number of rotation parameters      ...  22319

CI-STEP:
CI strategy                         ... General CI
Number of multiplicity blocks       ...    2
BLOCK  1 WEIGHT=   0.5000
  Multiplicity                      ...    4
  #(Configurations)                 ...   10
  #(CSFs)                           ...   10
  #(Roots)                          ...   10
    ROOT=0 WEIGHT=    0.050000
    ROOT=1 WEIGHT=    0.050000
    ROOT=2 WEIGHT=    0.050000
    ROOT=3 WEIGHT=    0.050000
    ROOT=4 WEIGHT=    0.050000
    ROOT=5 WEIGHT=    0.050000
    ROOT=6 WEIGHT=    0.050000
    ROOT=7 WEIGHT=    0.050000
    ROOT=8 WEIGHT=    0.050000
    ROOT=9 WEIGHT=    0.050000

BLOCK  2 WEIGHT=   0.5000
  Multiplicity                      ...    2
  #(Configurations)                 ...   30
  #(CSFs)                           ...   40
  #(Roots)                          ...   40
    ROOT=0 WEIGHT=    0.012500
    ROOT=1 WEIGHT=    0.012500
    ROOT=2 WEIGHT=    0.012500
    ROOT=3 WEIGHT=    0.012500
    ROOT=4 WEIGHT=    0.012500
    ROOT=5 WEIGHT=    0.012500
    ROOT=6 WEIGHT=    0.012500
    ROOT=7 WEIGHT=    0.012500
    ROOT=8 WEIGHT=    0.012500
    ROOT=9 WEIGHT=    0.012500
    ROOT=10 WEIGHT=    0.012500
    ROOT=11 WEIGHT=    0.012500
    ROOT=12 WEIGHT=    0.012500
    ROOT=13 WEIGHT=    0.012500
    ROOT=14 WEIGHT=    0.012500
    ROOT=15 WEIGHT=    0.012500
    ROOT=16 WEIGHT=    0.012500
    ROOT=17 WEIGHT=    0.012500
    ROOT=18 WEIGHT=    0.012500
    ROOT=19 WEIGHT=    0.012500
    ROOT=20 WEIGHT=    0.012500
    ROOT=21 WEIGHT=    0.012500
    ROOT=22 WEIGHT=    0.012500
    ROOT=23 WEIGHT=    0.012500
    ROOT=24 WEIGHT=    0.012500
    ROOT=25 WEIGHT=    0.012500
    ROOT=26 WEIGHT=    0.012500
    ROOT=27 WEIGHT=    0.012500
    ROOT=28 WEIGHT=    0.012500
    ROOT=29 WEIGHT=    0.012500
    ROOT=30 WEIGHT=    0.012500
    ROOT=31 WEIGHT=    0.012500
    ROOT=32 WEIGHT=    0.012500
    ROOT=33 WEIGHT=    0.012500
    ROOT=34 WEIGHT=    0.012500
    ROOT=35 WEIGHT=    0.012500
    ROOT=36 WEIGHT=    0.012500
    ROOT=37 WEIGHT=    0.012500
    ROOT=38 WEIGHT=    0.012500
    ROOT=39 WEIGHT=    0.012500

  PrintLevel                        ...    1
  N(GuessMat)                       ...       512
  MaxDim(CI)                        ...        10
  MaxIter(CI)                       ...        64
  Energy Tolerance CI               ...  1.00e-09
  Residual Tolerance CI             ...  1.00e-09
  Shift(CI)                         ...  1.00e-04

INTEGRAL-TRANSFORMATION-STEP:
  Algorithm                         ... RI-MO

ORBITAL-IMPROVEMENT-STEP:
  Algorithm                         ... SuperCI
  Default Parametrization           ... CAYLEY
  Act-Act rotations                 ... depends on algorithm used
  FreezeIE                          ... 95.00% of ||g||
  Until reaching FreezeIE rotations with active orbitals are damped. 

  Approx. Fock at                   ... 0.000000e+00 density convergence
  Level shift                       ... energy gap dependent. Minimum=1.000
  Switch step at gradient           ...  3.00e-02 
  Switch step at iteration          ...        50   
  Switch step to                    ... DIIS    

SCF-SETTINGS:
  Incremental                       ... off
  RIJCOSX approximation             ... on
  UseFinalGrid                      ... on
  RI-JK approximation               ... off
  AO integral handling              ... DIRECT
  Integral Neglect Thresh           ...  1.00e-12
  Primitive cutoff TCut             ...  1.00e-14
  Energy convergence tolerance      ...  1.00e-08
  Orbital gradient convergence      ...  1.00e-05
  Max. number of iterations         ...       100  


PROPERTIES-SETTINGS:
  Spin orbit coupling               ... true
  GTensor                           ... true

FINAL ORBITALS:
  Active   Orbitals                 ... d-orbitals 
  Internal Orbitals                 ... canonical 
  External Orbitals                 ... canonical 

------------------
CAS-SCF ITERATIONS
------------------


MACRO-ITERATION   1: 
   --- Canonicalize Internal Space
   --- Canonicalize External Space
   --- Inactive Energy E0 = -2120.38602632 Eh
CI-ITERATION   0: 
 -2143.165053345   0.000000000000 (    0.00)
 -2143.164311264   0.000000000000
 -2143.157925461   0.000000000000
 -2143.157699967   0.000000000000
 -2143.153801902   0.000000000000
 -2143.152908685   0.000000000000
 -2143.149950100   0.000000000000
 -2143.087255745   0.000000000000
 -2143.074715306   0.000000000000
 -2143.064997566   0.000000000000
   CI-PROBLEM SOLVED
   DENSITIES MADE
CI-ITERATION   0: 
 -2143.083507324   0.000000000000 (    0.00)
 -2143.083106401   0.000000000000
 -2143.082857794   0.000000000000
 -2143.081107396   0.000000000000
 -2143.080355621   0.000000000000
 -2143.077704865   0.000000000000
 -2143.076947634   0.000000000000
 -2143.073000271   0.000000000000
 -2143.072412939   0.000000000000
 -2143.064116503   0.000000000000
 -2143.063772262   0.000000000000
 -2143.061401938   0.000000000000
 -2143.057427196   0.000000000000
 -2143.056632678   0.000000000000
 -2143.054915570   0.000000000000
 -2143.053809132   0.000000000000
 -2143.049381309   0.000000000000
 -2143.047177777   0.000000000000
 -2143.046622002   0.000000000000
 -2143.046506258   0.000000000000
 -2143.042695523   0.000000000000
 -2143.039708500   0.000000000000
 -2143.039472694   0.000000000000
 -2143.035652146   0.000000000000
 -2143.033625868   0.000000000000
 -2143.033344468   0.000000000000
 -2143.032655991   0.000000000000
 -2143.032147809   0.000000000000
 -2142.975207719   0.000000000000
 -2142.973977387   0.000000000000
 -2142.969720319   0.000000000000
 -2142.968273316   0.000000000000
 -2142.967126526   0.000000000000
 -2142.963353973   0.000000000000
 -2142.963352608   0.000000000000
 -2142.873292882   0.000000000000
 -2142.869739346   0.000000000000
 -2142.867068041   0.000000000000
 -2142.845199908   0.000000000000
 -2142.844475400   0.000000000000
   CI-PROBLEM SOLVED
   DENSITIES MADE

                 <<<<<<<<<<<<<<<<<<INITIAL CI STATE CHECK>>>>>>>>>>>>>>>>>>

BLOCK  1 MULT= 4 NROOTS=10 
ROOT   0:  E=   -2143.1650533445 Eh
      0.42228 [     9]: 22111
      0.27416 [     1]: 11212
      0.14801 [     5]: 12211
      0.03972 [     6]: 21112
      0.03573 [     0]: 11122
      0.03537 [     8]: 21211
      0.02350 [     7]: 21121
      0.01894 [     4]: 12121
ROOT   1:  E=   -2143.1643112644 Eh  0.020 eV    162.9 cm**-1
      0.36330 [     6]: 21112
      0.35047 [     5]: 12211
      0.10305 [     8]: 21211
      0.06615 [     1]: 11212
      0.05537 [     4]: 12121
      0.02298 [     2]: 11221
      0.01575 [     0]: 11122
      0.01202 [     9]: 22111
      0.00913 [     7]: 21121
ROOT   2:  E=   -2143.1579254608 Eh  0.194 eV   1564.4 cm**-1
      0.46994 [     4]: 12121
      0.23431 [     0]: 11122
      0.10933 [     7]: 21121
      0.06615 [     3]: 12112
      0.06379 [     5]: 12211
      0.02963 [     1]: 11212
      0.01494 [     8]: 21211
      0.00732 [     6]: 21112
      0.00412 [     9]: 22111
ROOT   3:  E=   -2143.1576999666 Eh  0.200 eV   1613.9 cm**-1
      0.32894 [     0]: 11122
      0.27769 [     4]: 12121
      0.11174 [     2]: 11221
      0.10322 [     5]: 12211
      0.07442 [     1]: 11212
      0.07219 [     7]: 21121
      0.01628 [     9]: 22111
      0.01420 [     3]: 12112
ROOT   4:  E=   -2143.1538019018 Eh  0.306 eV   2469.4 cm**-1
      0.24997 [     8]: 21211
      0.20184 [     1]: 11212
      0.17200 [     9]: 22111
      0.14983 [     3]: 12112
      0.09034 [     5]: 12211
      0.08318 [     7]: 21121
      0.04656 [     6]: 21112
      0.00351 [     2]: 11221
ROOT   5:  E=   -2143.1529086852 Eh  0.330 eV   2665.4 cm**-1
      0.23213 [     6]: 21112
      0.18253 [     5]: 12211
      0.17019 [     1]: 11212
      0.12826 [     7]: 21121
      0.11303 [     4]: 12121
      0.08308 [     8]: 21211
      0.04458 [     3]: 12112
      0.02457 [     2]: 11221
      0.01730 [     9]: 22111
      0.00433 [     0]: 11122
ROOT   6:  E=   -2143.1499501002 Eh  0.411 eV   3314.8 cm**-1
      0.26327 [     0]: 11122
      0.12265 [     8]: 21211
      0.12144 [     7]: 21121
      0.11977 [     6]: 21112
      0.11571 [     2]: 11221
      0.09050 [     9]: 22111
      0.08408 [     3]: 12112
      0.07622 [     1]: 11212
      0.00444 [     4]: 12121
ROOT   7:  E=   -2143.0872557446 Eh  2.117 eV  17074.6 cm**-1
      0.46141 [     3]: 12112
      0.36267 [     8]: 21211
      0.06291 [     0]: 11122
      0.03145 [     9]: 22111
      0.02277 [     5]: 12211
      0.02140 [     2]: 11221
      0.01917 [     6]: 21112
      0.01779 [     7]: 21121
ROOT   8:  E=   -2143.0747153056 Eh  2.458 eV  19826.9 cm**-1
      0.50346 [     2]: 11221
      0.19793 [     7]: 21121
      0.16064 [     6]: 21112
      0.03816 [     9]: 22111
      0.03669 [     3]: 12112
      0.03066 [     5]: 12211
      0.02301 [     4]: 12121
      0.00648 [     8]: 21211
      0.00265 [     0]: 11122
ROOT   9:  E=   -2143.0649975661 Eh  2.723 eV  21959.7 cm**-1
      0.23726 [     7]: 21121
      0.19588 [     9]: 22111
      0.19387 [     2]: 11221
      0.14127 [     3]: 12112
      0.10701 [     1]: 11212
      0.05104 [     0]: 11122
      0.03552 [     4]: 12121
      0.02075 [     8]: 21211
      0.01112 [     6]: 21112
      0.00629 [     5]: 12211

BLOCK  2 MULT= 2 NROOTS=40 
ROOT   0:  E=   -2143.0835073242 Eh
      0.16102 [    26]: 22111
      0.13683 [    12]: 12211
      0.08683 [    10]: 12121
      0.08511 [     2]: 02212
      0.05516 [    15]: 20212
      0.05185 [     5]: 11122
      0.05169 [    11]: 12202
      0.04687 [     9]: 12112
      0.04418 [    13]: 12220
      0.03667 [     6]: 11212
      0.02908 [    24]: 22021
      0.02666 [    23]: 22012
      0.02653 [     7]: 11221
      0.02259 [    27]: 22120
      0.02222 [    21]: 21211
      0.02202 [     1]: 02122
      0.01827 [    17]: 21022
      0.01391 [    22]: 21220
      0.01365 [    14]: 20122
      0.01339 [    25]: 22102
      0.01327 [    18]: 21112
      0.00743 [     0]: 01222
      0.00441 [     8]: 12022
      0.00416 [    19]: 21121
      0.00392 [     4]: 10222
ROOT   1:  E=   -2143.0831064007 Eh  0.011 eV     88.0 cm**-1
      0.21528 [    12]: 12211
      0.14794 [    10]: 12121
      0.09954 [    20]: 21202
      0.07492 [    18]: 21112
      0.07288 [    26]: 22111
      0.04050 [    24]: 22021
      0.03979 [    11]: 12202
      0.03305 [    19]: 21121
      0.03209 [     6]: 11212
      0.03195 [    29]: 22210
      0.02899 [     1]: 02122
      0.02473 [    14]: 20122
      0.02046 [     8]: 12022
      0.01976 [     4]: 10222
      0.01945 [    28]: 22201
      0.01660 [    17]: 21022
      0.01479 [     2]: 02212
      0.01353 [    27]: 22120
      0.01127 [    21]: 21211
      0.00982 [     5]: 11122
      0.00921 [    22]: 21220
      0.00769 [     3]: 02221
      0.00511 [     7]: 11221
      0.00292 [     0]: 01222
ROOT   2:  E=   -2143.0828577943 Eh  0.018 eV    142.6 cm**-1
      0.14565 [    28]: 22201
      0.13363 [     6]: 11212
      0.11298 [    10]: 12121
      0.11239 [    12]: 12211
      0.05118 [    25]: 22102
      0.05046 [    18]: 21112
      0.04153 [     5]: 11122
      0.04082 [    14]: 20122
      0.04065 [    19]: 21121
      0.02604 [    23]: 22012
      0.02496 [    21]: 21211
      0.02317 [    16]: 20221
      0.02114 [    20]: 21202
      0.02085 [    11]: 12202
      0.01805 [    29]: 22210
      0.01733 [     2]: 02212
      0.01663 [    26]: 22111
      0.01430 [    13]: 12220
      0.01426 [    15]: 20212
      0.01333 [     8]: 12022
      0.01222 [    22]: 21220
      0.01047 [     3]: 02221
      0.00899 [     7]: 11221
      0.00705 [     9]: 12112
      0.00632 [     1]: 02122
      0.00576 [     0]: 01222
      0.00470 [    24]: 22021
ROOT   3:  E=   -2143.0811073961 Eh  0.065 eV    526.7 cm**-1
      0.11504 [     6]: 11212
      0.09483 [    28]: 22201
      0.09178 [    20]: 21202
      0.09036 [    27]: 22120
      0.08982 [    18]: 21112
      0.06895 [     0]: 01222
      0.05719 [    10]: 12121
      0.04646 [    26]: 22111
      0.04502 [    25]: 22102
      0.04345 [    19]: 21121
      0.04218 [     5]: 11122
      0.02573 [    24]: 22021
      0.02438 [    29]: 22210
      0.02384 [     9]: 12112
      0.01750 [    21]: 21211
      0.01733 [     2]: 02212
      0.01482 [    12]: 12211
      0.01469 [     3]: 02221
      0.01171 [    22]: 21220
      0.01158 [     1]: 02122
      0.01148 [     4]: 10222
      0.01141 [    23]: 22012
      0.01008 [    17]: 21022
      0.00746 [    15]: 20212
      0.00741 [     7]: 11221
      0.00257 [     8]: 12022
ROOT   4:  E=   -2143.0803556210 Eh  0.086 eV    691.7 cm**-1
      0.13971 [    20]: 21202
      0.13070 [    18]: 21112
      0.11381 [    28]: 22201
      0.08861 [    12]: 12211
      0.06434 [     1]: 02122
      0.06055 [     5]: 11122
      0.05535 [     8]: 12022
      0.05469 [    27]: 22120
      0.04776 [    19]: 21121
      0.04372 [    21]: 21211
      0.03974 [    17]: 21022
      0.03660 [     6]: 11212
      0.03415 [    13]: 12220
      0.02805 [     3]: 02221
      0.01301 [    11]: 12202
      0.01201 [     7]: 11221
      0.01094 [    26]: 22111
      0.00957 [     4]: 10222
      0.00723 [     0]: 01222
      0.00359 [     9]: 12112
ROOT   5:  E=   -2143.0777048652 Eh  0.158 eV   1273.5 cm**-1
      0.22457 [    26]: 22111
      0.13559 [     6]: 11212
      0.10661 [     5]: 11122
      0.10466 [    10]: 12121
      0.05438 [    21]: 21211
      0.05194 [     2]: 02212
      0.04963 [    29]: 22210
      0.04542 [    19]: 21121
      0.04112 [     9]: 12112
      0.04034 [    18]: 21112
      0.03177 [    11]: 12202
      0.01897 [    28]: 22201
      0.01755 [    13]: 12220
      0.01670 [     0]: 01222
      0.01270 [    17]: 21022
      0.00834 [     4]: 10222
      0.00683 [    16]: 20221
      0.00675 [    23]: 22012
      0.00634 [    20]: 21202
      0.00472 [     7]: 11221
      0.00458 [    22]: 21220
      0.00370 [    15]: 20212
      0.00365 [     1]: 02122
ROOT   6:  E=   -2143.0769476336 Eh  0.178 eV   1439.7 cm**-1
      0.23269 [    12]: 12211
      0.13774 [    18]: 21112
      0.10061 [     5]: 11122
      0.07242 [     6]: 11212
      0.06575 [    14]: 20122
      0.05508 [    26]: 22111
      0.05016 [    21]: 21211
      0.04964 [    29]: 22210
      0.04200 [    10]: 12121
      0.03374 [    17]: 21022
      0.03089 [     8]: 12022
      0.02490 [    20]: 21202
      0.02361 [    25]: 22102
      0.01375 [     2]: 02212
      0.00954 [    19]: 21121
      0.00814 [    13]: 12220
      0.00802 [     0]: 01222
      0.00779 [     9]: 12112
      0.00668 [    16]: 20221
      0.00566 [    22]: 21220
      0.00391 [    23]: 22012
      0.00387 [    27]: 22120
      0.00381 [     3]: 02221
      0.00370 [     4]: 10222
ROOT   7:  E=   -2143.0730002710 Eh  0.286 eV   2306.0 cm**-1
      0.23462 [    10]: 12121
      0.10881 [    12]: 12211
      0.09606 [     5]: 11122
      0.08790 [    15]: 20212
      0.04727 [     7]: 11221
      0.04137 [    18]: 21112
      0.03963 [     0]: 01222
      0.03866 [    29]: 22210
      0.03800 [    28]: 22201
      0.03727 [    17]: 21022
      0.03716 [    23]: 22012
      0.03507 [    24]: 22021
      0.03348 [    19]: 21121
      0.02453 [     3]: 02221
      0.01691 [     6]: 11212
      0.01635 [     2]: 02212
      0.01270 [    26]: 22111
      0.01039 [    20]: 21202
      0.00959 [    21]: 21211
      0.00857 [    11]: 12202
      0.00468 [    13]: 12220
      0.00453 [    22]: 21220
      0.00391 [     9]: 12112
      0.00382 [     8]: 12022
      0.00372 [    27]: 22120
ROOT   8:  E=   -2143.0724129391 Eh  0.302 eV   2434.9 cm**-1
      0.14339 [    24]: 22021
      0.12573 [    21]: 21211
      0.11591 [     3]: 02221
      0.10356 [     6]: 11212
      0.09105 [     5]: 11122
      0.07366 [    10]: 12121
      0.05202 [    17]: 21022
      0.04353 [     0]: 01222
      0.03444 [    26]: 22111
      0.03407 [    20]: 21202
      0.03127 [     9]: 12112
      0.02760 [    19]: 21121
      0.02446 [    13]: 12220
      0.01420 [     2]: 02212
      0.01094 [    14]: 20122
      0.01045 [    16]: 20221
      0.01000 [     4]: 10222
      0.00949 [    15]: 20212
      0.00845 [    18]: 21112
      0.00689 [    12]: 12211
      0.00643 [    29]: 22210
      0.00492 [     1]: 02122
      0.00466 [    27]: 22120
      0.00423 [    28]: 22201
ROOT   9:  E=   -2143.0641165029 Eh  0.528 eV   4255.8 cm**-1
      0.14194 [     9]: 12112
      0.11650 [    26]: 22111
      0.08163 [     8]: 12022
      0.07330 [    12]: 12211
      0.07194 [     5]: 11122
      0.06911 [    11]: 12202
      0.06068 [     6]: 11212
      0.06012 [    18]: 21112
      0.05448 [    19]: 21121
      0.04883 [     0]: 01222
      0.03267 [     3]: 02221
      0.02481 [     1]: 02122
      0.02346 [    10]: 12121
      0.02186 [    17]: 21022
      0.02117 [    13]: 12220
      0.02030 [    20]: 21202
      0.01976 [     7]: 11221
      0.01292 [     4]: 10222
      0.01231 [    16]: 20221
      0.00893 [    25]: 22102
      0.00659 [    21]: 21211
      0.00568 [    29]: 22210
      0.00375 [    24]: 22021
      0.00281 [    14]: 20122
ROOT  10:  E=   -2143.0637722624 Eh  0.537 eV   4331.3 cm**-1
      0.11094 [     9]: 12112
      0.08767 [    10]: 12121
      0.07831 [     6]: 11212
      0.07479 [     1]: 02122
      0.07164 [    12]: 12211
      0.06826 [     3]: 02221
      0.05528 [     5]: 11122
      0.04425 [     7]: 11221
      0.04043 [    29]: 22210
      0.03964 [    17]: 21022
      0.03717 [     8]: 12022
      0.03474 [    20]: 21202
      0.03457 [    18]: 21112
      0.03425 [    24]: 22021
      0.03410 [     0]: 01222
      0.03239 [    23]: 22012
      0.02906 [    14]: 20122
      0.02459 [    21]: 21211
      0.02209 [    27]: 22120
      0.01342 [    22]: 21220
      0.00759 [    26]: 22111
      0.00652 [    25]: 22102
      0.00410 [     4]: 10222
      0.00344 [    28]: 22201
      0.00343 [     2]: 02212
      0.00272 [    13]: 12220
ROOT  11:  E=   -2143.0614019380 Eh  0.602 eV   4851.6 cm**-1
      0.18007 [    11]: 12202
      0.13106 [    28]: 22201
      0.12922 [    26]: 22111
      0.11418 [     9]: 12112
      0.07018 [    19]: 21121
      0.06035 [    18]: 21112
      0.05281 [    25]: 22102
      0.04707 [     4]: 10222
      0.03779 [    29]: 22210
      0.03382 [    20]: 21202
      0.03090 [     6]: 11212
      0.02358 [    12]: 12211
      0.01864 [    24]: 22021
      0.01779 [     2]: 02212
      0.00931 [    10]: 12121
      0.00570 [     5]: 11122
      0.00554 [     7]: 11221
      0.00497 [     3]: 02221
      0.00429 [    27]: 22120
      0.00419 [    21]: 21211
      0.00405 [    13]: 12220
      0.00372 [    22]: 21220
      0.00356 [    17]: 21022
      0.00288 [     0]: 01222
ROOT  12:  E=   -2143.0574271957 Eh  0.710 eV   5723.9 cm**-1
      0.27571 [    18]: 21112
      0.12560 [    12]: 12211
      0.09088 [     6]: 11212
      0.07713 [     9]: 12112
      0.05154 [    29]: 22210
      0.04090 [     5]: 11122
      0.03621 [     8]: 12022
      0.03130 [    15]: 20212
      0.03042 [    21]: 21211
      0.02916 [     2]: 02212
      0.02773 [    28]: 22201
      0.02428 [    23]: 22012
      0.02342 [    20]: 21202
      0.02084 [    25]: 22102
      0.01996 [     1]: 02122
      0.01896 [    27]: 22120
      0.01881 [     7]: 11221
      0.01416 [    14]: 20122
      0.00913 [    17]: 21022
      0.00897 [    11]: 12202
      0.00679 [     3]: 02221
      0.00666 [    13]: 12220
      0.00404 [     0]: 01222
ROOT  13:  E=   -2143.0566326778 Eh  0.731 eV   5898.3 cm**-1
      0.15137 [     1]: 02122
      0.15062 [    26]: 22111
      0.12926 [    17]: 21022
      0.05377 [     2]: 02212
      0.04792 [    11]: 12202
      0.03996 [    18]: 21112
      0.03812 [     9]: 12112
      0.03613 [     6]: 11212
      0.03605 [     3]: 02221
      0.03273 [    21]: 21211
      0.02911 [    19]: 21121
      0.02766 [    10]: 12121
      0.02718 [     0]: 01222
      0.02526 [    25]: 22102
      0.02398 [    13]: 12220
      0.02267 [    15]: 20212
      0.02137 [     8]: 12022
      0.01776 [    23]: 22012
      0.01556 [    20]: 21202
      0.01486 [     7]: 11221
      0.01457 [    27]: 22120
      0.01367 [    24]: 22021
      0.01062 [    12]: 12211
      0.00583 [     5]: 11122
      0.00407 [    28]: 22201
      0.00394 [    14]: 20122
      0.00281 [    29]: 22210
ROOT  14:  E=   -2143.0549155704 Eh  0.778 eV   6275.2 cm**-1
      0.14382 [     9]: 12112
      0.09029 [    13]: 12220
      0.08048 [    21]: 21211
      0.07786 [     1]: 02122
      0.07632 [    10]: 12121
      0.07241 [     6]: 11212
      0.06459 [     5]: 11122
      0.06037 [    19]: 21121
      0.04480 [    12]: 12211
      0.03992 [     8]: 12022
      0.02958 [    15]: 20212
      0.02846 [    29]: 22210
      0.02802 [    11]: 12202
      0.02744 [    24]: 22021
      0.02362 [    28]: 22201
      0.02200 [    14]: 20122
      0.02084 [    26]: 22111
      0.01119 [    27]: 22120
      0.01101 [     3]: 02221
      0.01082 [    17]: 21022
      0.00885 [    18]: 21112
      0.00671 [     0]: 01222
      0.00630 [    16]: 20221
      0.00588 [     7]: 11221
      0.00364 [    20]: 21202
ROOT  15:  E=   -2143.0538091318 Eh  0.808 eV   6518.0 cm**-1
      0.13594 [     5]: 11122
      0.11052 [     8]: 12022
      0.08587 [    18]: 21112
      0.07535 [    21]: 21211
      0.07496 [    20]: 21202
      0.06847 [    11]: 12202
      0.06262 [    29]: 22210
      0.05984 [     7]: 11221
      0.04728 [    10]: 12121
      0.03765 [     9]: 12112
      0.03559 [    12]: 12211
      0.02568 [    26]: 22111
      0.02420 [    27]: 22120
      0.02283 [     3]: 02221
      0.02213 [     6]: 11212
      0.01888 [    28]: 22201
      0.01543 [    14]: 20122
      0.01371 [    19]: 21121
      0.01029 [     0]: 01222
      0.01021 [    15]: 20212
      0.00888 [     2]: 02212
      0.00850 [     4]: 10222
      0.00728 [    13]: 12220
      0.00707 [    24]: 22021
      0.00254 [    17]: 21022
ROOT  16:  E=   -2143.0493813088 Eh  0.929 eV   7489.8 cm**-1
      0.14936 [    21]: 21211
      0.12032 [     5]: 11122
      0.10400 [    20]: 21202
      0.07806 [     3]: 02221
      0.07169 [    10]: 12121
      0.06921 [    17]: 21022
      0.06695 [    27]: 22120
      0.06321 [     2]: 02212
      0.04425 [     4]: 10222
      0.03685 [    28]: 22201
      0.02756 [    18]: 21112
      0.02537 [    19]: 21121
      0.02180 [     1]: 02122
      0.01805 [     8]: 12022
      0.01659 [    12]: 12211
      0.01517 [    25]: 22102
      0.01481 [    22]: 21220
      0.01437 [    14]: 20122
      0.01296 [    23]: 22012
      0.00902 [    11]: 12202
      0.00532 [    15]: 20212
      0.00515 [     6]: 11212
      0.00395 [     7]: 11221
ROOT  17:  E=   -2143.0471777774 Eh  0.989 eV   7973.4 cm**-1
      0.18772 [     9]: 12112
      0.10371 [    15]: 20212
      0.09563 [    19]: 21121
      0.09451 [     6]: 11212
      0.07417 [     5]: 11122
      0.06345 [    24]: 22021
      0.05666 [    12]: 12211
      0.04703 [     1]: 02122
      0.03862 [    26]: 22111
      0.03117 [    27]: 22120
      0.02161 [    21]: 21211
      0.02041 [    17]: 21022
      0.02031 [    16]: 20221
      0.01923 [     7]: 11221
      0.01801 [    18]: 21112
      0.01676 [     3]: 02221
      0.01619 [    13]: 12220
      0.01618 [    10]: 12121
      0.01436 [     4]: 10222
      0.01302 [     0]: 01222
      0.01233 [     2]: 02212
      0.00586 [    14]: 20122
      0.00317 [    29]: 22210
      0.00297 [     8]: 12022
ROOT  18:  E=   -2143.0466220018 Eh  1.004 eV   8095.4 cm**-1
      0.14974 [    21]: 21211
      0.13560 [     5]: 11122
      0.10179 [    28]: 22201
      0.08752 [     9]: 12112
      0.07353 [    20]: 21202
      0.06731 [    18]: 21112
      0.05852 [    13]: 12220
      0.04103 [    14]: 20122
      0.04055 [    10]: 12121
      0.03061 [    19]: 21121
      0.02647 [    29]: 22210
      0.02474 [    26]: 22111
      0.01990 [     6]: 11212
      0.01951 [     0]: 01222
      0.01939 [     2]: 02212
      0.01562 [    17]: 21022
      0.01424 [     3]: 02221
      0.01361 [     7]: 11221
      0.01136 [     1]: 02122
      0.00918 [    22]: 21220
      0.00868 [    12]: 12211
      0.00771 [    24]: 22021
      0.00710 [    11]: 12202
      0.00618 [    16]: 20221
      0.00510 [    27]: 22120
      0.00268 [    23]: 22012
ROOT  19:  E=   -2143.0465062581 Eh  1.007 eV   8120.8 cm**-1
      0.12018 [     7]: 11221
      0.08616 [     6]: 11212
      0.08449 [    10]: 12121
      0.08439 [    18]: 21112
      0.06649 [    21]: 21211
      0.06473 [     2]: 02212
      0.05574 [    17]: 21022
      0.04980 [    23]: 22012
      0.04559 [    24]: 22021
      0.04114 [    19]: 21121
      0.04081 [    12]: 12211
      0.03793 [    29]: 22210
      0.03673 [    20]: 21202
      0.03584 [    15]: 20212
      0.03546 [    26]: 22111
      0.03517 [     8]: 12022
      0.02469 [     4]: 10222
      0.02147 [     9]: 12112
      0.00614 [    22]: 21220
      0.00591 [    11]: 12202
      0.00512 [    28]: 22201
      0.00492 [     3]: 02221
      0.00448 [    25]: 22102
      0.00327 [     5]: 11122
ROOT  20:  E=   -2143.0426955225 Eh  1.111 eV   8957.2 cm**-1
      0.10093 [     5]: 11122
      0.09462 [    21]: 21211
      0.09427 [    26]: 22111
      0.07757 [     2]: 02212
      0.06191 [    24]: 22021
      0.06171 [    15]: 20212
      0.04702 [    23]: 22012
      0.04631 [    28]: 22201
      0.04541 [    29]: 22210
      0.04428 [     8]: 12022
      0.04344 [     7]: 11221
      0.03799 [     3]: 02221
      0.02809 [    27]: 22120
      0.02350 [    14]: 20122
      0.02337 [     0]: 01222
      0.02220 [     4]: 10222
      0.02058 [    20]: 21202
      0.01830 [     1]: 02122
      0.01685 [    22]: 21220
      0.01303 [    10]: 12121
      0.01276 [     6]: 11212
      0.01233 [    19]: 21121
      0.01179 [    11]: 12202
      0.01164 [    16]: 20221
      0.01008 [    18]: 21112
      0.00835 [    13]: 12220
      0.00690 [     9]: 12112
      0.00412 [    12]: 12211
ROOT  21:  E=   -2143.0397084999 Eh  1.192 eV   9612.7 cm**-1
      0.27613 [    21]: 21211
      0.15101 [     6]: 11212
      0.11967 [    19]: 21121
      0.09294 [    26]: 22111
      0.07346 [     5]: 11122
      0.04348 [     0]: 01222
      0.03451 [     4]: 10222
      0.03181 [    10]: 12121
      0.02711 [    24]: 22021
      0.02607 [    23]: 22012
      0.01722 [    15]: 20212
      0.01607 [     2]: 02212
      0.01469 [    16]: 20221
      0.01308 [    18]: 21112
      0.00964 [    22]: 21220
      0.00899 [     7]: 11221
      0.00751 [     9]: 12112
      0.00703 [    17]: 21022
      0.00686 [    12]: 12211
      0.00628 [     3]: 02221
      0.00389 [    13]: 12220
      0.00349 [    11]: 12202
ROOT  22:  E=   -2143.0394726941 Eh  1.198 eV   9664.5 cm**-1
      0.14626 [    12]: 12211
      0.12776 [    15]: 20212
      0.12409 [    18]: 21112
      0.09523 [    29]: 22210
      0.08005 [    10]: 12121
      0.07611 [    14]: 20122
      0.06799 [     5]: 11122
      0.05244 [     9]: 12112
      0.03354 [     7]: 11221
      0.03339 [     8]: 12022
      0.02217 [    17]: 21022
      0.01921 [    27]: 22120
      0.01837 [     3]: 02221
      0.01308 [    21]: 21211
      0.01185 [    16]: 20221
      0.01026 [     1]: 02122
      0.00957 [    13]: 12220
      0.00944 [    23]: 22012
      0.00840 [    19]: 21121
      0.00819 [    24]: 22021
      0.00662 [     6]: 11212
      0.00581 [    26]: 22111
      0.00568 [    25]: 22102
      0.00557 [    22]: 21220
      0.00436 [     2]: 02212
ROOT  23:  E=   -2143.0356521458 Eh  1.302 eV  10503.0 cm**-1
      0.21924 [     6]: 11212
      0.14297 [    19]: 21121
      0.07521 [    26]: 22111
      0.06926 [    27]: 22120
      0.05602 [    24]: 22021
      0.05528 [     0]: 01222
      0.04871 [     9]: 12112
      0.04295 [    21]: 21211
      0.04184 [     8]: 12022
      0.03725 [    13]: 12220
      0.02955 [     3]: 02221
      0.02533 [     7]: 11221
      0.02446 [    29]: 22210
      0.02373 [    14]: 20122
      0.02164 [    18]: 21112
      0.01612 [     4]: 10222
      0.01212 [    25]: 22102
      0.00695 [    28]: 22201
      0.00669 [     5]: 11122
      0.00651 [    10]: 12121
      0.00574 [    16]: 20221
      0.00567 [     2]: 02212
      0.00501 [    12]: 12211
      0.00487 [    17]: 21022
      0.00456 [    20]: 21202
      0.00411 [    15]: 20212
      0.00397 [     1]: 02122
ROOT  24:  E=   -2143.0336258684 Eh  1.357 eV  10947.7 cm**-1
      0.16439 [    19]: 21121
      0.13439 [    13]: 12220
      0.11145 [    14]: 20122
      0.09469 [     7]: 11221
      0.07963 [    10]: 12121
      0.05583 [    17]: 21022
      0.05573 [     5]: 11122
      0.04696 [    18]: 21112
      0.04368 [    12]: 12211
      0.04229 [     3]: 02221
      0.03999 [     4]: 10222
      0.03327 [    21]: 21211
      0.01873 [    16]: 20221
      0.01127 [    25]: 22102
      0.00932 [    24]: 22021
      0.00919 [    26]: 22111
      0.00916 [    11]: 12202
      0.00873 [     8]: 12022
      0.00793 [    22]: 21220
      0.00538 [    29]: 22210
      0.00330 [    27]: 22120
      0.00328 [     0]: 01222
      0.00303 [     9]: 12112
      0.00269 [    15]: 20212
ROOT  25:  E=   -2143.0333444678 Eh  1.365 eV  11009.5 cm**-1
      0.19912 [     7]: 11221
      0.15369 [    14]: 20122
      0.09364 [    13]: 12220
      0.07062 [    27]: 22120
      0.06027 [    10]: 12121
      0.05934 [     4]: 10222
      0.05702 [     5]: 11122
      0.05666 [    19]: 21121
      0.03829 [    26]: 22111
      0.03519 [     3]: 02221
      0.03152 [    15]: 20212
      0.01691 [    12]: 12211
      0.01657 [    17]: 21022
      0.01637 [    24]: 22021
      0.01412 [     0]: 01222
      0.01407 [    18]: 21112
      0.01148 [    21]: 21211
      0.01030 [    22]: 21220
      0.00988 [     9]: 12112
      0.00765 [    20]: 21202
      0.00673 [    29]: 22210
      0.00561 [     8]: 12022
      0.00533 [    23]: 22012
      0.00332 [     1]: 02122
      0.00275 [     6]: 11212
ROOT  26:  E=   -2143.0326559908 Eh  1.384 eV  11160.6 cm**-1
      0.13880 [     4]: 10222
      0.12824 [    27]: 22120
      0.11340 [     7]: 11221
      0.10682 [    19]: 21121
      0.09575 [    14]: 20122
      0.08685 [    25]: 22102
      0.07724 [    12]: 12211
      0.06062 [     0]: 01222
      0.04877 [     6]: 11212
      0.03847 [    10]: 12121
      0.01597 [    22]: 21220
      0.01530 [    18]: 21112
      0.00948 [    11]: 12202
      0.00764 [     5]: 11122
      0.00678 [    21]: 21211
      0.00675 [     2]: 02212
      0.00660 [     3]: 02221
      0.00650 [     1]: 02122
      0.00540 [    17]: 21022
      0.00509 [    23]: 22012
      0.00480 [    26]: 22111
      0.00433 [    13]: 12220
      0.00319 [    28]: 22201
ROOT  27:  E=   -2143.0321478091 Eh  1.398 eV  11272.1 cm**-1
      0.18428 [    15]: 20212
      0.12399 [    10]: 12121
      0.12344 [    29]: 22210
      0.10887 [     7]: 11221
      0.07263 [    12]: 12211
      0.07224 [    17]: 21022
      0.04864 [     1]: 02122
      0.04815 [    18]: 21112
      0.04587 [    26]: 22111
      0.04246 [     5]: 11122
      0.02515 [     6]: 11212
      0.01995 [    24]: 22021
      0.01353 [     0]: 01222
      0.01331 [     4]: 10222
      0.01024 [    20]: 21202
      0.01015 [    13]: 12220
      0.01013 [     3]: 02221
      0.00741 [    21]: 21211
      0.00497 [    23]: 22012
      0.00417 [     9]: 12112
      0.00369 [    27]: 22120
ROOT  28:  E=   -2142.9752077190 Eh  2.947 eV  23769.0 cm**-1
      0.14932 [     7]: 11221
      0.14640 [    22]: 21220
      0.12369 [    25]: 22102
      0.07380 [    21]: 21211
      0.06657 [    11]: 12202
      0.05203 [     5]: 11122
      0.04743 [     0]: 01222
      0.04323 [     9]: 12112
      0.04231 [     1]: 02122
      0.04027 [    18]: 21112
      0.03537 [    19]: 21121
      0.02754 [     8]: 12022
      0.02630 [    23]: 22012
      0.02429 [    17]: 21022
      0.02384 [    12]: 12211
      0.01241 [    24]: 22021
      0.01155 [     6]: 11212
      0.00855 [    29]: 22210
      0.00681 [    10]: 12121
      0.00652 [     2]: 02212
      0.00598 [    14]: 20122
      0.00579 [    27]: 22120
      0.00533 [    20]: 21202
      0.00506 [    26]: 22111
      0.00385 [    15]: 20212
      0.00263 [    28]: 22201
ROOT  29:  E=   -2142.9739773865 Eh  2.980 eV  24039.0 cm**-1
      0.16586 [     9]: 12112
      0.14505 [    16]: 20221
      0.12617 [    21]: 21211
      0.07344 [    19]: 21121
      0.06168 [     3]: 02221
      0.05700 [    25]: 22102
      0.04764 [    26]: 22111
      0.04378 [    28]: 22201
      0.04065 [     7]: 11221
      0.03267 [    23]: 22012
      0.02904 [     6]: 11212
      0.02784 [    13]: 12220
      0.02480 [     2]: 02212
      0.01971 [     5]: 11122
      0.01854 [    18]: 21112
      0.01693 [    10]: 12121
      0.01665 [     4]: 10222
      0.01188 [     8]: 12022
      0.00995 [    11]: 12202
      0.00624 [     1]: 02122
      0.00600 [    12]: 12211
      0.00513 [    17]: 21022
      0.00490 [    14]: 20122
      0.00286 [    24]: 22021
      0.00260 [    20]: 21202
ROOT  30:  E=   -2142.9697203191 Eh  3.096 eV  24973.4 cm**-1
      0.25827 [     9]: 12112
      0.17272 [    19]: 21121
      0.11765 [     7]: 11221
      0.06719 [     3]: 02221
      0.04031 [     0]: 01222
      0.04026 [    27]: 22120
      0.03740 [    16]: 20221
      0.03003 [    11]: 12202
      0.02727 [    29]: 22210
      0.02272 [     6]: 11212
      0.02174 [    24]: 22021
      0.02134 [    17]: 21022
      0.02112 [    18]: 21112
      0.01863 [    26]: 22111
      0.01819 [    21]: 21211
      0.01314 [    10]: 12121
      0.01143 [    14]: 20122
      0.01016 [    23]: 22012
      0.01014 [    13]: 12220
      0.00957 [     4]: 10222
      0.00953 [    20]: 21202
      0.00714 [    22]: 21220
      0.00557 [     5]: 11122
      0.00403 [    15]: 20212
      0.00280 [    12]: 12211
ROOT  31:  E=   -2142.9682733156 Eh  3.136 eV  25290.9 cm**-1
      0.15911 [     7]: 11221
      0.15551 [    21]: 21211
      0.08725 [    19]: 21121
      0.07079 [    24]: 22021
      0.06792 [    25]: 22102
      0.06682 [    26]: 22111
      0.06642 [    11]: 12202
      0.06358 [     8]: 12022
      0.05304 [     4]: 10222
      0.03296 [     1]: 02122
      0.02989 [     0]: 01222
      0.02968 [     6]: 11212
      0.01985 [     5]: 11122
      0.01548 [    12]: 12211
      0.01522 [    17]: 21022
      0.01486 [    18]: 21112
      0.01407 [     9]: 12112
      0.00805 [    15]: 20212
      0.00511 [    22]: 21220
      0.00496 [    14]: 20122
      0.00469 [    20]: 21202
      0.00439 [    10]: 12121
      0.00438 [    16]: 20221
ROOT  32:  E=   -2142.9671265260 Eh  3.167 eV  25542.6 cm**-1
      0.15803 [     7]: 11221
      0.10982 [    19]: 21121
      0.10926 [    23]: 22012
      0.09391 [     9]: 12112
      0.07738 [    21]: 21211
      0.06243 [     2]: 02212
      0.06140 [     0]: 01222
      0.05065 [    26]: 22111
      0.04573 [    24]: 22021
      0.03387 [    22]: 21220
      0.02673 [    17]: 21022
      0.02672 [     6]: 11212
      0.02343 [     5]: 11122
      0.01638 [     4]: 10222
      0.01449 [     3]: 02221
      0.01273 [    25]: 22102
      0.01069 [    28]: 22201
      0.01048 [    29]: 22210
      0.01012 [    18]: 21112
      0.00927 [     8]: 12022
      0.00919 [     1]: 02122
      0.00554 [    10]: 12121
      0.00508 [    11]: 12202
      0.00499 [    13]: 12220
      0.00304 [    27]: 22120
      0.00298 [    12]: 12211
ROOT  33:  E=   -2142.9633539728 Eh  3.270 eV  26370.6 cm**-1
      0.15327 [    18]: 21112
      0.12293 [     7]: 11221
      0.07926 [    12]: 12211
      0.07864 [    22]: 21220
      0.06859 [    23]: 22012
      0.05587 [    19]: 21121
      0.05166 [     4]: 10222
      0.04591 [    13]: 12220
      0.04358 [    10]: 12121
      0.04135 [    26]: 22111
      0.03875 [    27]: 22120
      0.03709 [     2]: 02212
      0.02864 [     5]: 11122
      0.02269 [     0]: 01222
      0.02035 [    16]: 20221
      0.01938 [    14]: 20122
      0.01734 [    25]: 22102
      0.01651 [     9]: 12112
      0.01426 [    15]: 20212
      0.00844 [    17]: 21022
      0.00776 [     3]: 02221
      0.00732 [     6]: 11212
      0.00710 [     1]: 02122
      0.00356 [    21]: 21211
      0.00321 [     8]: 12022
      0.00253 [    11]: 12202
ROOT  34:  E=   -2142.9633526082 Eh  3.270 eV  26370.9 cm**-1
      0.15898 [    26]: 22111
      0.10227 [     7]: 11221
      0.08695 [     9]: 12112
      0.07921 [    16]: 20221
      0.07879 [     6]: 11212
      0.06810 [     4]: 10222
      0.06608 [    19]: 21121
      0.05262 [    18]: 21112
      0.04972 [    13]: 12220
      0.04064 [     5]: 11122
      0.03636 [    27]: 22120
      0.03112 [    10]: 12121
      0.02007 [    21]: 21211
      0.01979 [    24]: 22021
      0.01689 [     3]: 02221
      0.01591 [    14]: 20122
      0.01386 [    22]: 21220
      0.01313 [    25]: 22102
      0.01275 [    11]: 12202
      0.01082 [     8]: 12022
      0.00757 [     0]: 01222
      0.00705 [     1]: 02122
      0.00597 [    12]: 12211
      0.00396 [    23]: 22012
ROOT  35:  E=   -2142.8732928824 Eh  5.720 eV  46136.7 cm**-1
      0.24681 [    23]: 22012
      0.19658 [     2]: 02212
      0.08254 [    15]: 20212
      0.07965 [     0]: 01222
      0.07942 [    22]: 21220
      0.06863 [    29]: 22210
      0.03245 [    25]: 22102
      0.02751 [    20]: 21202
      0.02668 [    10]: 12121
      0.01988 [     8]: 12022
      0.01903 [    27]: 22120
      0.01707 [    14]: 20122
      0.01657 [     9]: 12112
      0.01502 [     7]: 11221
      0.01093 [    18]: 21112
      0.00800 [     3]: 02221
      0.00770 [     5]: 11122
      0.00721 [     4]: 10222
      0.00706 [    17]: 21022
      0.00634 [    12]: 12211
      0.00514 [    24]: 22021
      0.00376 [    26]: 22111
      0.00332 [    13]: 12220
      0.00326 [    16]: 20221
      0.00261 [    11]: 12202
ROOT  36:  E=   -2142.8697393455 Eh  5.817 eV  46916.6 cm**-1
      0.13462 [    16]: 20221
      0.10262 [     4]: 10222
      0.07834 [    13]: 12220
      0.07362 [     1]: 02122
      0.07308 [     8]: 12022
      0.05503 [    11]: 12202
      0.05018 [    23]: 22012
      0.04604 [     3]: 02221
      0.04171 [    25]: 22102
      0.03885 [     6]: 11212
      0.03883 [    19]: 21121
      0.03820 [    26]: 22111
      0.03768 [    27]: 22120
      0.03156 [    28]: 22201
      0.02731 [    14]: 20122
      0.02031 [    24]: 22021
      0.01763 [     7]: 11221
      0.01438 [     9]: 12112
      0.01397 [     2]: 02212
      0.01359 [    15]: 20212
      0.01018 [    17]: 21022
      0.00958 [    10]: 12121
      0.00853 [    29]: 22210
      0.00785 [     0]: 01222
      0.00492 [    12]: 12211
      0.00380 [     5]: 11122
      0.00367 [    22]: 21220
      0.00277 [    20]: 21202
ROOT  37:  E=   -2142.8670680410 Eh  5.890 eV  47502.9 cm**-1
      0.20463 [    25]: 22102
      0.09844 [    11]: 12202
      0.08204 [     1]: 02122
      0.07874 [    22]: 21220
      0.07410 [    13]: 12220
      0.06951 [     8]: 12022
      0.06772 [    27]: 22120
      0.06611 [     4]: 10222
      0.06105 [    14]: 20122
      0.04621 [    12]: 12211
      0.02777 [    23]: 22012
      0.02587 [    18]: 21112
      0.01381 [     2]: 02212
      0.01178 [    20]: 21202
      0.01064 [     5]: 11122
      0.01028 [     7]: 11221
      0.00846 [    17]: 21022
      0.00759 [    10]: 12121
      0.00705 [    29]: 22210
      0.00668 [    19]: 21121
      0.00664 [    16]: 20221
      0.00345 [    26]: 22111
      0.00256 [     6]: 11212
      0.00253 [    24]: 22021
ROOT  38:  E=   -2142.8451999082 Eh  6.485 eV  52302.4 cm**-1
      0.21639 [    16]: 20221
      0.18877 [    22]: 21220
      0.07598 [     0]: 01222
      0.05466 [     1]: 02122
      0.04347 [    24]: 22021
      0.03957 [    14]: 20122
      0.03223 [    28]: 22201
      0.03139 [     3]: 02221
      0.03126 [    10]: 12121
      0.03098 [    25]: 22102
      0.03072 [     5]: 11122
      0.02783 [    17]: 21022
      0.02465 [    27]: 22120
      0.02439 [     4]: 10222
      0.02309 [    21]: 21211
      0.01951 [    20]: 21202
      0.01751 [     8]: 12022
      0.01594 [     7]: 11221
      0.01413 [    23]: 22012
      0.01410 [    13]: 12220
      0.01225 [    29]: 22210
      0.00910 [    18]: 21112
      0.00490 [    19]: 21121
      0.00472 [    12]: 12211
      0.00422 [     9]: 12112
      0.00391 [     2]: 02212
      0.00319 [    11]: 12202
ROOT  39:  E=   -2142.8444753999 Eh  6.504 eV  52461.4 cm**-1
      0.17997 [    16]: 20221
      0.17983 [    22]: 21220
      0.06112 [    17]: 21022
      0.05531 [     3]: 02221
      0.05218 [    23]: 22012
      0.04887 [    24]: 22021
      0.04532 [     0]: 01222
      0.03988 [     8]: 12022
      0.03340 [    29]: 22210
      0.03158 [     5]: 11122
      0.02904 [     4]: 10222
      0.02743 [    19]: 21121
      0.02465 [    28]: 22201
      0.02382 [    10]: 12121
      0.02295 [     7]: 11221
      0.02254 [     9]: 12112
      0.01929 [    20]: 21202
      0.01910 [     2]: 02212
      0.01553 [    15]: 20212
      0.01356 [    11]: 12202
      0.01318 [     1]: 02122
      0.01224 [    21]: 21211
      0.01182 [    26]: 22111
      0.00506 [    13]: 12220
      0.00478 [    27]: 22120
      0.00322 [    12]: 12211
      0.00251 [    25]: 22102

                 <<<<<<<<<<<<<<<<<<INITIAL CI STATE CHECK>>>>>>>>>>>>>>>>>>

   E(CAS)= -2143.074966633 Eh DE=    0.000000e+00
   --- Energy gap subspaces: Ext-Act = 1.569   Act-Int = 0.252
   --- current l-shift: Up(Ext-Act) = 1.00   Dn(Act-Int) = 1.75
   N(occ)=  1.40000 1.40000 1.40000 1.40000 1.40000
   ||g|| =     6.593038e-06 Max(G)=   -1.984673e-06 Rot=448,0
                     ---- THE CAS-SCF GRADIENT HAS CONVERGED ----
                            --- FINALIZING ORBITALS ---
                    ---- DOING ONE FINAL ITERATION FOR PRINTING ----
   --- d-orbitals (depends on the molecular axis frame)
 L-Center:  0 Co [-0.019, 1.244, 1.336] 
   --- The active space contains 5 d Orbitals : OK
 Setting 51 active MO to AO dz2     (25)
 Setting 52 active MO to AO dxz     (26)
 Setting 53 active MO to AO dyz     (27)
 Setting 54 active MO to AO dx2y2   (28)
 Setting 55 active MO to AO dxy     (29)
   --- Canonicalize Internal Space
   --- Canonicalize External Space

MACRO-ITERATION   2: 
   --- Inactive Energy E0 = -2120.38602632 Eh
   --- All densities will be recomputed
CI-ITERATION   0: 
 -2143.165053344   0.000000000000 (    0.00)
 -2143.164311259   0.000000000000
 -2143.157925457   0.000000000000
 -2143.157699955   0.000000000000
 -2143.153801898   0.000000000000
 -2143.152908679   0.000000000000
 -2143.149950096   0.000000000000
 -2143.087255740   0.000000000000
 -2143.074715299   0.000000000000
 -2143.064997561   0.000000000000
   CI-PROBLEM SOLVED
   DENSITIES MADE
CI-ITERATION   0: 
 -2143.083507319   0.000000000000 (    0.00)
 -2143.083106398   0.000000000000
 -2143.082857789   0.000000000000
 -2143.081107393   0.000000000000
 -2143.080355617   0.000000000000
 -2143.077704861   0.000000000000
 -2143.076947628   0.000000000000
 -2143.073000266   0.000000000000
 -2143.072412933   0.000000000000
 -2143.064116496   0.000000000000
 -2143.063772256   0.000000000000
 -2143.061401935   0.000000000000
 -2143.057427192   0.000000000000
 -2143.056632673   0.000000000000
 -2143.054915564   0.000000000000
 -2143.053809126   0.000000000000
 -2143.049381303   0.000000000000
 -2143.047177772   0.000000000000
 -2143.046621996   0.000000000000
 -2143.046506254   0.000000000000
 -2143.042695517   0.000000000000
 -2143.039708494   0.000000000000
 -2143.039472690   0.000000000000
 -2143.035652142   0.000000000000
 -2143.033625865   0.000000000000
 -2143.033344460   0.000000000000
 -2143.032655981   0.000000000000
 -2143.032147804   0.000000000000
 -2142.975207714   0.000000000000
 -2142.973977382   0.000000000000
 -2142.969720314   0.000000000000
 -2142.968273310   0.000000000000
 -2142.967126520   0.000000000000
 -2142.963353968   0.000000000000
 -2142.963352603   0.000000000000
 -2142.873292877   0.000000000000
 -2142.869739339   0.000000000000
 -2142.867068037   0.000000000000
 -2142.845199901   0.000000000000
 -2142.844475397   0.000000000000
   CI-PROBLEM SOLVED
   DENSITIES MADE
   E(CAS)= -2143.074966628 Eh DE=    5.186848e-09
   --- Energy gap subspaces: Ext-Act = 0.418   Act-Int = 0.009
   --- current l-shift: Up(Ext-Act) = 1.08   Dn(Act-Int) = 1.49
   N(occ)=  1.40000 1.40000 1.40000 1.40000 1.40000
   ||g|| =     6.593033e-06 Max(G)=    2.079358e-06 Rot=56,50
--------------
CASSCF RESULTS
--------------

Final CASSCF energy       : -2143.074966628 Eh  -58316.0346 eV

----------------
ORBITAL ENERGIES
----------------

  NO   OCC          E(Eh)            E(eV) 
   0   2.0000    -285.816568     -7777.4642 
   1   2.0000     -35.519276      -966.5286 
   2   2.0000     -30.292405      -824.2983 
   3   2.0000     -30.291648      -824.2776 
   4   2.0000     -30.289183      -824.2106 
   5   2.0000     -26.354046      -717.1301 
   6   2.0000     -26.353921      -717.1267 
   7   2.0000     -26.352324      -717.0832 
   8   2.0000     -26.352241      -717.0809 
   9   2.0000     -26.344091      -716.8592 
  10   2.0000     -26.343936      -716.8550 
  11   2.0000     -11.505405      -313.0780 
  12   2.0000     -11.505285      -313.0747 
  13   2.0000     -11.230837      -305.6066 
  14   2.0000     -11.230771      -305.6048 
  15   2.0000      -4.669037      -127.0510 
  16   2.0000      -3.078074       -83.7587 
  17   2.0000      -3.077238       -83.7359 
  18   2.0000      -3.074037       -83.6488 
  19   2.0000      -1.704312       -46.3767 
  20   2.0000      -1.704193       -46.3735 
  21   2.0000      -1.619271       -44.0626 
  22   2.0000      -1.619179       -44.0601 
  23   2.0000      -1.613317       -43.9006 
  24   2.0000      -1.613177       -43.8968 
  25   2.0000      -1.046667       -28.4813 
  26   2.0000      -1.043940       -28.4071 
  27   2.0000      -0.900644       -24.5078 
  28   2.0000      -0.897517       -24.4227 
  29   2.0000      -0.802854       -21.8468 
  30   2.0000      -0.802656       -21.8414 
  31   2.0000      -0.801723       -21.8160 
  32   2.0000      -0.801337       -21.8055 
  33   2.0000      -0.752504       -20.4767 
  34   2.0000      -0.750905       -20.4332 
  35   2.0000      -0.700147       -19.0520 
  36   2.0000      -0.699316       -19.0293 
  37   2.0000      -0.695451       -18.9242 
[...]
 3 106   44445.3    225.0   0.00000   0.00000   0.00000   0.00000000006718   0.99434   0.00544   0.00022
 3 107   44445.3    225.0   0.00000   0.00002   0.00000   0.00000000015269   0.98914   0.01081   0.00004
 3 108   44735.5    223.5   0.00000   0.00001   0.00000   0.00000000040311   0.99851   0.00142   0.00008
 3 109   44735.5    223.5   0.00000   0.00001   0.00000   0.00000000080182   0.99898   0.00099   0.00003
 3 110   64353.0    155.4   0.00000   0.00000   0.00000   0.00000000050142   0.99952   0.00042   0.00006
 3 111   64353.0    155.4   0.00000   0.00000   0.00000   0.00000000015205   0.99943   0.00047   0.00010
 3 112   65105.4    153.6   0.00000   0.00000   0.00000   0.00000000008276   0.99736   0.00196   0.00068
 3 113   65105.4    153.6   0.00000   0.00000   0.00000   0.00000000017355   0.99912   0.00068   0.00020
 3 114   65776.0    152.0   0.00000   0.00000   0.00000   0.00000000158088   0.99973   0.00012   0.00015
 3 115   65776.0    152.0   0.00000   0.00000   0.00000   0.00000000080135   0.99967   0.00013   0.00020
 3 116   70343.2    142.2   0.00000   0.00000   0.00000   0.00000000231778   0.99984   0.00004   0.00012
 3 117   70343.2    142.2   0.00000   0.00000   0.00000   0.00000000156924   0.99982   0.00002   0.00015
 3 118   70866.2    141.1   0.00000   0.00001   0.00000   0.00000000018633   0.99612   0.00361   0.00027
 3 119   70866.2    141.1   0.00000   0.00002   0.00000   0.00000000046062   0.99670   0.00324   0.00006

Done

                 =============================
                 AB INITIO LIGAND FIELD THEORY
                       d7 configuration
                          2 CI blocks
                         MOs 51 to 55
                 =============================

Metal/Atom center is atom 0
orbital phases =   1.0   1.0   1.0   1.0   1.0 
Metal/Atom d-orbital parts of active orbitals
Shell 15
             51        52        53        54        55
dz2     :  0.608974  0.000357 -0.000024 -0.000875  0.000474
dxz     :  0.003125  0.609574 -0.000062  0.000385  0.001080
dyz     :  0.001524 -0.000526  0.613142  0.000044  0.000081
dx2y2   :  0.017544 -0.008769 -0.002836  0.598522  0.000061
dxy     : -0.005612 -0.006230  0.000367  0.007211  0.610142
Shell 16
             51        52        53        54        55
dz2     :  0.406202 -0.000401 -0.000221  0.000860 -0.000203
dxz     :  0.001647  0.403534  0.000233 -0.000234 -0.000029
dyz     :  0.001004 -0.000107  0.410231  0.000094 -0.000220
dx2y2   :  0.013155 -0.006103 -0.001509  0.397581 -0.000304
dxy     : -0.004334 -0.004860 -0.000062  0.004732  0.403988
Shell 17
             51        52        53        54        55
dz2     :  0.221478 -0.000059  0.001121 -0.001968  0.000020
dxz     : -0.000191  0.221643 -0.000230  0.001230 -0.001532
dyz     :  0.000461 -0.000081  0.221518  0.000102 -0.000059
dx2y2   :  0.004606 -0.003091 -0.003057  0.219582 -0.000047
dxy     : -0.001835 -0.004214  0.000371  0.000990  0.222001
Shell 20
             51        52        53        54        55
dz2     :  0.012073  0.001478  0.001265  0.008484 -0.001879
dxz     :  0.005088  0.014057 -0.001032 -0.005344 -0.000172
dyz     :  0.000564 -0.001174  0.017338 -0.000831  0.001173
dx2y2   :  0.008547 -0.003475 -0.002290  0.001252  0.003004
dxy     : -0.001888 -0.000387  0.000658  0.007099  0.014363

Adjusting phases of one-electron integrals               ... done
Adjusting phases of two-electron integrals               ... done


-----------------------------------------------------------------
Computing F0s from 2-electron integrals                  ... done 
-----------------------------------------------------------------
F0   =  0.880906109 a.u. =    23.971 eV =  193336.5 cm**-1
-----------------------------------------------------------------

Preparing for fit                                        ... done
Making fit matrices                                      ... done
Calculating ab initio Hamiltonian matrices               ... 
Calculating fit matrices                                 ... done
Fitting                                                  ... done

------------------------------
AILFT MATRIX ELEMENTS (CASSCF)
--------------------------------

Ligand field one-electron matrix VLFT (a.u.) : 
Orbital          dz2        dxz        dyz        dx2-y2     dxy
  dz2         -5.824687   0.001680   0.000034  -0.008814   0.003733 
  dxz          0.001680  -5.813846  -0.000845   0.003519   0.006832 
  dyz          0.000034  -0.000845  -5.830461  -0.000082   0.000946 
  dx2-y2      -0.008814   0.003519  -0.000082  -5.813763  -0.000702 
  dxy          0.003733   0.006832   0.000946  -0.000702  -5.814562 

-------------------------------------------------
Slater-Condon Parameters (electronic repulsion) : 
-------------------------------------------------
F0dd(from 2el Ints)     =  0.880906109 a.u. =    23.971 eV =  193336.5 cm**-1 (fixed)
F2dd                    =  0.397462107 a.u. =    10.815 eV =   87232.8 cm**-1
F4dd                    =  0.251180781 a.u. =     6.835 eV =   55127.8 cm**-1
-------------------
Racah Parameters : 
-------------------
A(F0dd from 2el Ints)   =  0.852997133 a.u. =    23.211 eV =  187211.2 cm**-1
B                       =  0.005263617 a.u. =     0.143 eV =    1155.2 cm**-1
C                       =  0.019934983 a.u. =     0.542 eV =    4375.2 cm**-1
C/B                     =  3.787
-------------------------------------------------------------------------------

-----------------------------------------
The ligand field one electron eigenfunctions:
-----------------------------------------
Orbital    Energy (eV)  Energy(cm-1)      dz2        dxz        dyz        dx2-y2     dxy
    1          0.000        0.0         0.035403   0.088576   0.989980   0.000486  -0.104112 
    2          0.006       50.8        -0.857622   0.141761   0.030620  -0.479116   0.117893 
    3          0.243     1956.0        -0.127145  -0.658357   0.136684   0.213125   0.697349 
    4          0.616     4966.4        -0.466778   0.185464  -0.017759   0.848471  -0.165842 
    5          0.655     5285.2        -0.170830  -0.710090  -0.001763  -0.071579  -0.679310 
Ligand field orbitals were stored in rho.casscf.lft.gbw

Calculating ligand field Hamiltonian matrices          ... done
Diagonalizing and fitting the ligand field Hamiltonian ... done
Calculating statistical parameters                     ... done

Reference energy AI-LFT =    -22.780686097 au
Reference energy AI     =    -22.779027022 au

------------------------------------------------
COMPARISON OF AB INITIO AND LIGAND FIELD RESULTS
------------------------------------------------

Block   1
---------
   AI-Root   0: E(AI)=    0.000 eV -> LF-Root   0:     0.000 eV    S= 0.995 Delta=    0.000 eV
   AI-Root   1: E(AI)=    0.020 eV -> LF-Root   1:     0.026 eV    S= 0.996 Delta=   -0.006 eV
   AI-Root   2: E(AI)=    0.194 eV -> LF-Root   2:     0.282 eV    S= 0.975 Delta=   -0.088 eV
   AI-Root   3: E(AI)=    0.200 eV -> LF-Root   3:     0.290 eV    S= 0.993 Delta=   -0.090 eV
   AI-Root   4: E(AI)=    0.306 eV -> LF-Root   4:     0.315 eV    S= 0.970 Delta=   -0.009 eV
   AI-Root   5: E(AI)=    0.330 eV -> LF-Root   5:     0.378 eV    S= 0.997 Delta=   -0.048 eV
   AI-Root   6: E(AI)=    0.411 eV -> LF-Root   6:     0.469 eV    S= 0.998 Delta=   -0.058 eV
   AI-Root   7: E(AI)=    2.117 eV -> LF-Root   7:     2.077 eV    S= 1.000 Delta=    0.040 eV
   AI-Root   8: E(AI)=    2.458 eV -> LF-Root   8:     2.536 eV    S= 0.999 Delta=   -0.077 eV
   AI-Root   9: E(AI)=    2.723 eV -> LF-Root   9:     2.830 eV    S= 0.999 Delta=   -0.108 eV
   (Dropping RMS error for the reference energy)
   RMS error for this block =     0.067 eV =     543.1 cm**-1 

Block   2
---------
   AI-Root   0: E(AI)=    2.219 eV -> LF-Root   0:     2.235 eV    S= 0.938 Delta=   -0.016 eV
   AI-Root   1: E(AI)=    2.230 eV -> LF-Root   1:     2.296 eV    S= 0.924 Delta=   -0.066 eV
   AI-Root   2: E(AI)=    2.237 eV -> LF-Root   2:     2.287 eV    S= 0.977 Delta=   -0.050 eV
   AI-Root   3: E(AI)=    2.284 eV -> LF-Root   3:     2.357 eV    S= 0.999 Delta=   -0.072 eV
   AI-Root   4: E(AI)=    2.305 eV -> LF-Root   4:     2.374 eV    S= 0.989 Delta=   -0.069 eV
   AI-Root   5: E(AI)=    2.377 eV -> LF-Root   5:     2.440 eV    S= 0.991 Delta=   -0.063 eV
   AI-Root   6: E(AI)=    2.397 eV -> LF-Root   6:     2.458 eV    S= 0.989 Delta=   -0.061 eV
   AI-Root   7: E(AI)=    2.505 eV -> LF-Root   7:     2.543 eV    S= 0.996 Delta=   -0.038 eV
   AI-Root   8: E(AI)=    2.521 eV -> LF-Root   8:     2.560 eV    S= 0.995 Delta=   -0.039 eV
   AI-Root   9: E(AI)=    2.747 eV -> LF-Root   9:     2.816 eV    S= 0.998 Delta=   -0.070 eV
   AI-Root  10: E(AI)=    2.756 eV -> LF-Root  10:     2.795 eV    S= 0.988 Delta=   -0.039 eV
   AI-Root  11: E(AI)=    2.820 eV -> LF-Root  11:     2.878 eV    S= 0.994 Delta=   -0.057 eV
   AI-Root  12: E(AI)=    2.929 eV -> LF-Root  12:     3.001 eV    S= 0.937 Delta=   -0.072 eV
   AI-Root  13: E(AI)=    2.950 eV -> LF-Root  13:     2.979 eV    S= 0.977 Delta=   -0.029 eV
   AI-Root  14: E(AI)=    2.997 eV -> LF-Root  14:     3.019 eV    S= 0.944 Delta=   -0.022 eV
   AI-Root  15: E(AI)=    3.027 eV -> LF-Root  15:     3.063 eV    S= 0.983 Delta=   -0.035 eV
   AI-Root  16: E(AI)=    3.148 eV -> LF-Root  16:     3.212 eV    S= 0.973 Delta=   -0.065 eV
   AI-Root  17: E(AI)=    3.208 eV -> LF-Root  17:     3.219 eV    S= 0.944 Delta=   -0.012 eV
   AI-Root  18: E(AI)=    3.223 eV -> LF-Root  18:     3.277 eV    S= 0.930 Delta=   -0.055 eV
   AI-Root  19: E(AI)=    3.226 eV -> LF-Root  19:     3.238 eV    S= 0.976 Delta=   -0.012 eV
   AI-Root  20: E(AI)=    3.330 eV -> LF-Root  20:     3.354 eV    S= 0.984 Delta=   -0.025 eV
   AI-Root  21: E(AI)=    3.411 eV -> LF-Root  21:     3.428 eV    S= 0.985 Delta=   -0.017 eV
   AI-Root  22: E(AI)=    3.417 eV -> LF-Root  22:     3.435 eV    S= 0.983 Delta=   -0.018 eV
   AI-Root  23: E(AI)=    3.521 eV -> LF-Root  23:     3.567 eV    S= 0.991 Delta=   -0.045 eV
   AI-Root  24: E(AI)=    3.576 eV -> LF-Root  24:     3.658 eV    S= 0.982 Delta=   -0.082 eV
   AI-Root  25: E(AI)=    3.584 eV -> LF-Root  25:     3.663 eV    S= 0.995 Delta=   -0.080 eV
   AI-Root  26: E(AI)=    3.603 eV -> LF-Root  26:     3.688 eV    S= 0.985 Delta=   -0.086 eV
   AI-Root  27: E(AI)=    3.617 eV -> LF-Root  27:     3.610 eV    S= 0.974 Delta=    0.006 eV
   AI-Root  28: E(AI)=    5.166 eV -> LF-Root  28:     5.240 eV    S= 0.999 Delta=   -0.074 eV
   AI-Root  29: E(AI)=    5.199 eV -> LF-Root  29:     5.248 eV    S= 0.999 Delta=   -0.049 eV
   AI-Root  30: E(AI)=    5.315 eV -> LF-Root  30:     5.368 eV    S= 0.999 Delta=   -0.053 eV
   AI-Root  31: E(AI)=    5.355 eV -> LF-Root  31:     5.403 eV    S= 0.999 Delta=   -0.049 eV
   AI-Root  32: E(AI)=    5.386 eV -> LF-Root  32:     5.436 eV    S= 0.999 Delta=   -0.050 eV
   AI-Root  33: E(AI)=    5.489 eV -> LF-Root  33:     5.547 eV    S= 0.955 Delta=   -0.059 eV
   AI-Root  34: E(AI)=    5.489 eV -> LF-Root  34:     5.546 eV    S= 0.955 Delta=   -0.058 eV
   AI-Root  35: E(AI)=    7.939 eV -> LF-Root  35:     7.923 eV    S= 0.999 Delta=    0.016 eV
   AI-Root  36: E(AI)=    8.036 eV -> LF-Root  36:     8.058 eV    S= 0.999 Delta=   -0.022 eV
   AI-Root  37: E(AI)=    8.109 eV -> LF-Root  37:     8.222 eV    S= 0.999 Delta=   -0.113 eV
   AI-Root  38: E(AI)=    8.704 eV -> LF-Root  38:     8.717 eV    S= 0.994 Delta=   -0.014 eV
   AI-Root  39: E(AI)=    8.723 eV -> LF-Root  39:     8.728 eV    S= 0.994 Delta=   -0.004 eV
   RMS error for this block =     0.053 eV =     427.4 cm**-1 

Total RMS error g=     0.056 eV =     450.9 cm**-1
Note: Dropped RMS error for the reference energy.

Confidence intervals (95%) computed from the square root of the
diagonal elements of the covariance matrix:
H(dz2   ,dz2   )=  0.000235600 a.u. =     0.006 eV =      51.7 cm**-1
H(dxz   ,dz2   )=  0.000199321 a.u. =     0.005 eV =      43.7 cm**-1
H(dxz   ,dxz   )=  0.000235600 a.u. =     0.006 eV =      51.7 cm**-1
H(dyz   ,dz2   )=  0.000199321 a.u. =     0.005 eV =      43.7 cm**-1
H(dyz   ,dxz   )=  0.000199321 a.u. =     0.005 eV =      43.7 cm**-1
H(dyz   ,dyz   )=  0.000235600 a.u. =     0.006 eV =      51.7 cm**-1
H(dx2-y2,dz2   )=  0.000199321 a.u. =     0.005 eV =      43.7 cm**-1
H(dx2-y2,dxz   )=  0.000199321 a.u. =     0.005 eV =      43.7 cm**-1
H(dx2-y2,dyz   )=  0.000199321 a.u. =     0.005 eV =      43.7 cm**-1
H(dx2-y2,dx2-y2)=  0.000235600 a.u. =     0.006 eV =      51.7 cm**-1
H(dxy   ,dz2   )=  0.000199321 a.u. =     0.005 eV =      43.7 cm**-1
H(dxy   ,dxz   )=  0.000199321 a.u. =     0.005 eV =      43.7 cm**-1
H(dxy   ,dyz   )=  0.000199321 a.u. =     0.005 eV =      43.7 cm**-1
H(dxy   ,dx2-y2)=  0.000199321 a.u. =     0.005 eV =      43.7 cm**-1
H(dxy   ,dxy   )=  0.000235600 a.u. =     0.006 eV =      51.7 cm**-1
F2dd            =  0.000846083 a.u. =     0.023 eV =     185.7 cm**-1
F4dd            =  0.001227120 a.u. =     0.033 eV =     269.3 cm**-1
Pearson's correlation coefficient =    1.000 (should be close to 1)

----------------------------------------------
SPIN ORBIT COUPLING (based on CASSCF orbitals)
----------------------------------------------

AI-SOC-X integrals (cm-1)
                  0          1          2          3          4    
      0      -0.000000   4.029459 897.535830  -1.176876   2.577300
      1      -4.029459  -0.000000  -6.052360   6.360625 506.296265
      2     -897.535830   6.052360  -0.000000 -499.677755  -1.239263
      3       1.176876  -6.360625 499.677755  -0.000000   0.282208
      4      -2.577300 -506.296265   1.239263  -0.282208   0.000000
AI-SOC-Y integrals (cm-1)
                  0          1          2          3          4    
      0       0.000000 -864.282433  -4.159908  -2.814542  -4.985264
      1     864.282433  -0.000000  -0.426723 -496.599379   0.154221
      2       4.159908   0.426723   0.000000  -6.385367 -512.939074
      3       2.814542 496.599379   6.385367  -0.000000  -0.417233
      4       4.985264  -0.154221 512.939074   0.417233   0.000000
AI-SOC-Z integrals (cm-1)
                  0          1          2          3          4    
      0      -0.000000  -0.435107  -3.263024  -9.686941 -31.853781
      1       0.435107   0.000000 -512.675396  -8.886578  15.503885
      2       3.263024 512.675396   0.000000   1.059378   8.122147
      3       9.686941   8.886578  -1.059378   0.000000 -996.487956
      4      31.853781 -15.503885  -8.122147 996.487956  -0.000000

Fit to the SOC matrix elements
a = 15.000000
b =     0.939 eV =    7572.7 cm**-1
SOC constant zeta =     0.063 eV =     504.8 cm**-1


LF-SOC-X integrals (cm-1)
                  0          1          2          3          4    
      0       0.000000  -0.000000 874.422678  -0.000000  -0.000000
      1       0.000000   0.000000  -0.000000  -0.000000 504.848168
      2     -874.422678   0.000000   0.000000 -504.848168  -0.000000
      3       0.000000   0.000000 504.848168   0.000000  -0.000000
      4       0.000000 -504.848168   0.000000   0.000000   0.000000
LF-SOC-Y integrals (cm-1)
                  0          1          2          3          4    
      0       0.000000 -874.422678  -0.000000  -0.000000  -0.000000
      1     874.422678   0.000000  -0.000000 -504.848168  -0.000000
      2       0.000000   0.000000   0.000000  -0.000000 -504.848168
      3       0.000000 504.848168   0.000000   0.000000  -0.000000
      4       0.000000   0.000000 504.848168   0.000000   0.000000
LF-SOC-Z integrals (cm-1)
                  0          1          2          3          4    
      0       0.000000  -0.000000  -0.000000  -0.000000  -0.000000
      1       0.000000   0.000000 -504.848168  -0.000000  -0.000000
      2       0.000000 504.848168   0.000000  -0.000000  -0.000000
      3       0.000000   0.000000   0.000000   0.000000 -1009.696337
      4       0.000000   0.000000   0.000000 1009.696337   0.000000

RMS error of nonzero matrix elements =    9.5 cm**-1


-----SOC-CONSTANTS-----
---All Values in cm-1---
ZETA_D = 504.85 
------------------------




---AILFT COMPLETED SUCCESFULLY!---

--------------
CASSCF TIMINGS
--------------

Total time                       ...       57.4 sec
Sum of individual times          ...       55.3 sec ( 96.3%)

Calculation of AO operators
   F(Core) operator              ...        9.8 sec ( 17.1%)
   G(Act) operator               ...        9.9 sec ( 17.3%)
   J(AO) operators               ...        0.0 sec (  0.0%)
Calculation of MO transformed quantities
   J(MO) operators               ...        1.6 sec (  2.9%)
   (pq|rs) integrals             ...        0.0 sec (  0.0%)
   AO->MO one electron integrals ...        0.0 sec (  0.1%)
Configuration interaction steps
   CI-setup phase                ...        0.0 sec (  0.1%)
   CI-solution phase             ...        0.1 sec (  0.2%)
   Generation of densities       ...        0.0 sec (  0.0%)
Orbital improvement steps
   Orbital gradient              ...        0.0 sec (  0.0%)
Properties                       ...       21.9 sec ( 38.1%)
   SOC integral calculation      ...       11.7 sec ( 20.3%)
   SSC RMEs (incl. integrals)    ...        0.0 sec (  0.0%)
   SOC RMEs                      ...        0.1 sec (  0.2%)

Maximum memory used throughout the entire CASSCF-calculation: 484.7 MB

-------------------------   --------------------
FINAL SINGLE POINT ENERGY     -2143.074966627963
-------------------------   --------------------


                            ***************************************
                            *     ORCA property calculations      *
                            ***************************************

                                    ---------------------
                                    Active property flags
                                    ---------------------
   (+) Dipole Moment


------------------------------------------------------------------------------
                       ORCA ELECTRIC PROPERTIES CALCULATION
------------------------------------------------------------------------------

Dipole Moment Calculation                       ... on
Quadrupole Moment Calculation                   ... off
Polarizability Calculation                      ... off
GBWName                                         ... rho.gbw
Electron density                                ... rho.scfp
The origin for moment calculation is the CENTER OF MASS  = (-0.005201,  0.095507  0.104391)

-------------
DIPOLE MOMENT
-------------
                                X             Y             Z
Electronic contribution:     -0.05257       1.60425       1.73363
Nuclear contribution   :      0.04200      -0.50664      -0.55881
                        -----------------------------------------
Total Dipole Moment    :     -0.01057       1.09760       1.17482
                        -----------------------------------------
Magnitude (a.u.)       :      1.60781
Magnitude (Debye)      :      4.08672



--------------------
Rotational spectrum 
--------------------
 
Rotational constants in cm-1:     0.066207     0.012098     0.011583 
Rotational constants in MHz :  1984.841661   362.683684   347.255136 

 Dipole components along the rotational axes: 
x,y,z [a.u.] :    -0.004814    -1.607800     0.000067 
x,y,z [Debye]:    -0.012236    -4.086704     0.000170 

 

Timings for individual modules:

Sum of individual times         ...       70.303 sec (=   1.172 min)
GTO integral calculation        ...        3.891 sec (=   0.065 min)   5.5 %
Relativistic integrals          ...        1.734 sec (=   0.029 min)   2.5 %
SCF iterations                  ...        2.311 sec (=   0.039 min)   3.3 %
CASSCF iterations               ...       62.367 sec (=   1.039 min)  88.7 %
                             ****ORCA TERMINATED NORMALLY****
TOTAL RUN TIME: 0 days 0 hours 1 minutes 14 seconds 195 msec
