
                                 *****************
                                 * O   R   C   A *
                                 *****************

                                            #,                                       
                                            ###                                      
                                            ####                                     
                                            #####                                    
                                            ######                                   
                                           ########,                                 
                                     ,,################,,,,,                         
                               ,,#################################,,                 
                          ,,##########################################,,             
                       ,#########################################, ''#####,          
                    ,#############################################,,   '####,        
                  ,##################################################,,,,####,       
                ,###########''''           ''''###############################       
              ,#####''   ,,,,##########,,,,          '''####'''          '####       
            ,##' ,,,,###########################,,,                        '##       
           ' ,,###''''                  '''############,,,                           
         ,,##''                                '''############,,,,        ,,,,,,###''
      ,#''                                            '''#######################'''  
     '                                                          ''''####''''         
             ,#######,   #######,   ,#######,      ##                                
            ,#'     '#,  ##    ##  ,#'     '#,    #''#        ######   ,####,        
            ##       ##  ##   ,#'  ##            #'  '#       #        #'  '#        
            ##       ##  #######   ##           ,######,      #####,   #    #        
            '#,     ,#'  ##    ##  '#,     ,#' ,#      #,         ##   #,  ,#        
             '#######'   ##     ##  '#######'  #'      '#     #####' # '####'        



                  #######################################################
                  #                        -***-                        #
                  #          Department of theory and spectroscopy      #
                  #    Directorship and core code : Frank Neese         #
                  #        Max Planck Institute fuer Kohlenforschung    #
                  #                Kaiser Wilhelm Platz 1               #
                  #                 D-45470 Muelheim/Ruhr               #
                  #                      Germany                        #
                  #                                                     #
                  #                  All rights reserved                #
                  #                        -***-                        #
                  #######################################################


                         Program Version 5.0.4 -  RELEASE  -


 With contributions from (in alphabetic order):
   Daniel Aravena         : Magnetic Suceptibility
   Michael Atanasov       : Ab Initio Ligand Field Theory (pilot matlab implementation)
   Alexander A. Auer      : GIAO ZORA, VPT2 properties, NMR spectrum
   Ute Becker             : Parallelization
   Giovanni Bistoni       : ED, misc. LED, open-shell LED, HFLD
   Martin Brehm           : Molecular dynamics
   Dmytro Bykov           : SCF Hessian
   Vijay G. Chilkuri      : MRCI spin determinant printing, contributions to CSF-ICE
   Dipayan Datta          : RHF DLPNO-CCSD density
   Achintya Kumar Dutta   : EOM-CC, STEOM-CC
   Dmitry Ganyushin       : Spin-Orbit,Spin-Spin,Magnetic field MRCI
   Miquel Garcia          : C-PCM and meta-GGA Hessian, CC/C-PCM, Gaussian charge scheme
   Yang Guo               : DLPNO-NEVPT2, F12-NEVPT2, CIM, IAO-localization
   Andreas Hansen         : Spin unrestricted coupled pair/coupled cluster methods
   Benjamin Helmich-Paris : MC-RPA, TRAH-SCF, COSX integrals
   Lee Huntington         : MR-EOM, pCC
   Robert Izsak           : Overlap fitted RIJCOSX, COSX-SCS-MP3, EOM
   Marcus Kettner         : VPT2
   Christian Kollmar      : KDIIS, OOCD, Brueckner-CCSD(T), CCSD density, CASPT2, CASPT2-K
   Simone Kossmann        : Meta GGA functionals, TD-DFT gradient, OOMP2, MP2 Hessian
   Martin Krupicka        : Initial AUTO-CI
   Lucas Lang             : DCDCAS
   Marvin Lechner         : AUTO-CI (C++ implementation), FIC-MRCC
   Dagmar Lenk            : GEPOL surface, SMD
   Dimitrios Liakos       : Extrapolation schemes; Compound Job, initial MDCI parallelization
   Dimitrios Manganas     : Further ROCIS development; embedding schemes
   Dimitrios Pantazis     : SARC Basis sets
   Anastasios Papadopoulos: AUTO-CI, single reference methods and gradients
   Taras Petrenko         : DFT Hessian,TD-DFT gradient, ASA, ECA, R-Raman, ABS, FL, XAS/XES, NRVS
   Peter Pinski           : DLPNO-MP2, DLPNO-MP2 Gradient
   Christoph Reimann      : Effective Core Potentials
   Marius Retegan         : Local ZFS, SOC
   Christoph Riplinger    : Optimizer, TS searches, QM/MM, DLPNO-CCSD(T), (RO)-DLPNO pert. Triples
   Tobias Risthaus        : Range-separated hybrids, TD-DFT gradient, RPA, STAB
   Michael Roemelt        : Original ROCIS implementation
   Masaaki Saitow         : Open-shell DLPNO-CCSD energy and density
   Barbara Sandhoefer     : DKH picture change effects
   Avijit Sen             : IP-ROCIS
   Kantharuban Sivalingam : CASSCF convergence, NEVPT2, FIC-MRCI
   Bernardo de Souza      : ESD, SOC TD-DFT
   Georgi Stoychev        : AutoAux, RI-MP2 NMR, DLPNO-MP2 response
   Willem Van den Heuvel  : Paramagnetic NMR
   Boris Wezisla          : Elementary symmetry handling
   Frank Wennmohs         : Technical directorship


 We gratefully acknowledge several colleagues who have allowed us to
 interface, adapt or use parts of their codes:
   Stefan Grimme, W. Hujo, H. Kruse, P. Pracht,  : VdW corrections, initial TS optimization,
                  C. Bannwarth, S. Ehlert          DFT functionals, gCP, sTDA/sTD-DF
   Ed Valeev, F. Pavosevic, A. Kumar             : LibInt (2-el integral package), F12 methods
   Garnet Chan, S. Sharma, J. Yang, R. Olivares  : DMRG
   Ulf Ekstrom                                   : XCFun DFT Library
   Mihaly Kallay                                 : mrcc  (arbitrary order and MRCC methods)
   Jiri Pittner, Ondrej Demel                    : Mk-CCSD
   Frank Weinhold                                : gennbo (NPA and NBO analysis)
   Christopher J. Cramer and Donald G. Truhlar   : smd solvation model
   Lars Goerigk                                  : TD-DFT with DH, B97 family of functionals
   V. Asgeirsson, H. Jonsson                     : NEB implementation
   FAccTs GmbH                                   : IRC, NEB, NEB-TS, DLPNO-Multilevel, CI-OPT
                                                   MM, QMMM, 2- and 3-layer-ONIOM, Crystal-QMMM,
                                                   LR-CPCM, SF, NACMEs, symmetry and pop. for TD-DFT,
                                                   nearIR, NL-DFT gradient (VV10), updates on ESD,
                                                   ML-optimized integration grids
   S Lehtola, MJT Oliveira, MAL Marques          : LibXC Library
   Liviu Ungur et al                             : ANISO software


 Your calculation uses the libint2 library for the computation of 2-el integrals
 For citations please refer to: http://libint.valeyev.net

 Your ORCA version has been built with support for libXC version: 5.1.0
 For citations please refer to: https://tddft.org/programs/libxc/

 This ORCA versions uses:
   CBLAS   interface :  Fast vector & matrix operations
   LAPACKE interface :  Fast linear algebra routines
   SCALAPACK package :  Parallel linear algebra routines
   Shared memory     :  Shared parallel matrices
   BLAS/LAPACK       :  OpenBLAS 0.3.15  USE64BITINT DYNAMIC_ARCH NO_AFFINITY Zen SINGLE_THREADED
        Core in use  :  Zen
   Copyright (c) 2011-2014, The OpenBLAS Project




***************************************
The coordinates will be read from file: geo.xyz
***************************************


================================================================================

----- Orbital basis set information -----
Your calculation utilizes the basis: DKH-def2-TZVPP
   Exponents from def2-TZVPP [F. Weigend and R. Ahlrichs, Phys. Chem. Chem. Phys. 7, 3297 (2005)],
   recontracted for DKH2 by D. A. Pantazis.

----- AuxJ basis set information -----
Your calculation utilizes the AutoAux generation procedure.
  G. L. Stoychev, A. A. Auer, F. Neese, J. Chem. Theory Comput. 13, 554 (2017)

----- AuxC basis set information -----
Your calculation utilizes the AutoAux generation procedure.
  G. L. Stoychev, A. A. Auer, F. Neese, J. Chem. Theory Comput. 13, 554 (2017)

----- AuxJK basis set information -----
Your calculation utilizes the AutoAux generation procedure.
  G. L. Stoychev, A. A. Auer, F. Neese, J. Chem. Theory Comput. 13, 554 (2017)

================================================================================
                                        WARNINGS
                       Please study these warnings very carefully!
================================================================================


INFO   : the flag for use of the SHARK integral package has been found!

================================================================================
                                       INPUT FILE
================================================================================
NAME = rho.inp
|  1> !CASSCF  DKH DKH-def2-TZVPP  RIJCOSX NoSFitting VeryTightSCF autoaux moread SlowConv
|  2> %moinp "orb.gbw"
|  3> %pal
|  4> nprocs 10
|  5> end
|  6> %maxcore 4000
|  7> # swap
|  8> #%scf
|  9> # Rotate
| 10> #  { 47, 37 }
| 11> # end
| 12> #end
| 13> #
| 14> %rel
| 15>  picturechange 2
| 16> end
| 17> %casscf
| 18>  nel  7
| 19>  norb 5
| 20>  mult 4,2
| 21>  nroots 10,40
| 22>  maxiter 100
| 23>  ActOrbs dOrbs
| 24>  rel
| 25>   printlevel 3
| 26>   dosoc true
| 27>   gtensor true
| 28>   quad true
| 29>  end
| 30> end
| 31> * xyzfile 2 4 geo.xyz *
| 32> 
| 33>                          ****END OF INPUT****
================================================================================

                       ****************************
                       * Single Point Calculation *
                       ****************************

---------------------------------
CARTESIAN COORDINATES (ANGSTROEM)
---------------------------------
  Co     0.000029   -0.001228   -0.139773
  N      1.895006   -0.087413   -0.106311
  C      2.697770   -0.094643    1.162635
  C      2.695244   -0.134352   -1.141442
  H      2.272228   -0.828909    1.859959
  H      2.598920    0.901650    1.621738
  C      4.140930   -0.415030    0.722651
  C      4.124950   -0.204865   -0.806181
  H      2.299022   -0.106475   -2.161261
  H      4.395861   -1.454935    0.960811
  H      4.870475    0.226794    1.226080
  H      4.605139    0.740139   -1.137691
  H      4.641202   -0.979495   -1.398891
  N     -1.894899    0.086870   -0.107891
  C     -2.696936    0.122851    1.161006
  C     -2.695587    0.109386   -1.143466
  H     -2.272752    0.875119    1.839747
  H     -2.595089   -0.861553    1.644395
  C     -4.141285    0.428932    0.714539
  C     -4.125239    0.185724   -0.809365
  H     -2.299723    0.058702   -2.162544
  H     -4.399785    1.472828    0.930318
  H     -4.868566   -0.204307    1.231937
  H     -4.604510   -0.766657   -1.120436
  H     -4.642403    0.946843   -1.418590

----------------------------
CARTESIAN COORDINATES (A.U.)
----------------------------
  NO LB      ZA    FRAG     MASS         X           Y           Z
   0 Co   27.0000    0    58.930    0.000055   -0.002321   -0.264132
   1 N     7.0000    0    14.007    3.581042   -0.165187   -0.200899
   2 C     6.0000    0    12.011    5.098046   -0.178849    2.197062
   3 C     6.0000    0    12.011    5.093273   -0.253889   -2.157012
   4 H     1.0000    0     1.008    4.293888   -1.566410    3.514813
   5 H     1.0000    0     1.008    4.911246    1.703872    3.064641
   6 C     6.0000    0    12.011    7.825223   -0.784292    1.365613
   7 C     6.0000    0    12.011    7.795025   -0.387139   -1.523461
   8 H     1.0000    0     1.008    4.344521   -0.201208   -4.084192
   9 H     1.0000    0     1.008    8.306974   -2.749428    1.815669
  10 H     1.0000    0     1.008    9.203863    0.428579    2.316955
  11 H     1.0000    0     1.008    8.702452    1.398659   -2.149925
  12 H     1.0000    0     1.008    8.770601   -1.850976   -2.643521
  13 N     7.0000    0    14.007   -3.580840    0.164161   -0.203885
  14 C     6.0000    0    12.011   -5.096470    0.232154    2.193983
  15 C     6.0000    0    12.011   -5.093922    0.206710   -2.160837
  16 H     1.0000    0     1.008   -4.294879    1.653735    3.476619
  17 H     1.0000    0     1.008   -4.904008   -1.628100    3.107457
  18 C     6.0000    0    12.011   -7.825894    0.810563    1.350283
  19 C     6.0000    0    12.011   -7.795572    0.350967   -1.529478
  20 H     1.0000    0     1.008   -4.345847    0.110931   -4.086617
  21 H     1.0000    0     1.008   -8.314389    2.783242    1.758046
  22 H     1.0000    0     1.008   -9.200256   -0.386084    2.328024
  23 H     1.0000    0     1.008   -8.701263   -1.448771   -2.117317
  24 H     1.0000    0     1.008   -8.772870    1.789274   -2.680746

--------------------------------
INTERNAL COORDINATES (ANGSTROEM)
--------------------------------
 Co     0   0   0     0.000000000000     0.00000000     0.00000000
 N      1   0   0     1.897230707615     0.00000000     0.00000000
 C      2   1   0     1.501568003641   123.30565761     0.00000000
 C      2   1   3     1.309228496691   126.74013441   180.76041053
 H      3   2   1     1.098404742165   109.42658029    47.93782297
 H      3   2   1     1.101429025547   107.45253693   291.18063950
 C      3   2   1     1.542382810659   105.07926620   170.58716430
 C      4   2   1     1.470180362287   114.57111186   180.36828451
 H      4   2   1     1.094440920798   120.96647125     1.22191296
 H      7   3   2     1.096864634707   110.63806868   255.86839792
 H      7   3   2     1.094355637541   111.75905682   136.07436357
 H      8   4   2     1.110636357789   108.15422523   246.81702708
 H      8   4   2     1.103572926249   111.47599490   133.58825469
 N      1   2   3     1.897242682587   178.02571749     0.34168814
 C     14   1   2     1.501551507509   123.28473939   358.26312254
 C     14   1   2     1.309207307535   126.75132651   179.12530855
 H     15  14   1     1.098421357442   109.40972605    48.16349587
 H     15  14   1     1.101403404253   107.46207668   291.41553392
 C     15  14   1     1.542453214769   105.08887893   170.79704012
 C     16  14   1     1.470154364833   114.57404903   180.23643548
 H     16  14   1     1.094439851179   120.96525354     1.10283333
 H     19  15  14     1.096860566326   110.64625585   255.70152853
 H     19  15  14     1.094362557364   111.75448080   135.91561229
 H     20  16  14     1.110627966461   108.14757429   246.74610690
 H     20  16  14     1.103592379546   111.47320303   133.53066642

---------------------------
INTERNAL COORDINATES (A.U.)
---------------------------
 Co     0   0   0     0.000000000000     0.00000000     0.00000000
 N      1   0   0     3.585246450257     0.00000000     0.00000000
 C      2   1   0     2.837552298340   123.30565761     0.00000000
 C      2   1   3     2.474083305471   126.74013441   180.76041053
 H      3   2   1     2.075684146891   109.42658029    47.93782297
 H      3   2   1     2.081399214235   107.45253693   291.18063950
 C      3   2   1     2.914681105813   105.07926620   170.58716430
 C      4   2   1     2.778238252192   114.57111186   180.36828451
 H      4   2   1     2.068193610065   120.96647125     1.22191296
 H      7   3   2     2.072773765580   110.63806868   255.86839792
 H      7   3   2     2.068032448066   111.75905682   136.07436357
 H      8   4   2     2.098798550597   108.15422523   246.81702708
 H      8   4   2     2.085450599422   111.47599490   133.58825469
 N      1   2   3     3.585269079676   178.02571749     0.34168814
 C     14   1   2     2.837521125168   123.28473939   358.26312254
 C     14   1   2     2.474043263770   126.75132651   179.12530855
 H     15  14   1     2.075715545215   109.40972605    48.16349587
 H     15  14   1     2.081350797006   107.46207668   291.41553392
 C     15  14   1     2.914814150300   105.08887893   170.79704012
 C     16  14   1     2.778189124123   114.57404903   180.23643548
 H     16  14   1     2.068191588778   120.96525354     1.10283333
 H     19  15  14     2.072766077453   110.64625585   255.70152853
 H     19  15  14     2.068045524636   111.75448080   135.91561229
 H     20  16  14     2.098782693285   108.14757429   246.74610690
 H     20  16  14     2.085487360825   111.47320303   133.53066642

---------------------
BASIS SET INFORMATION
---------------------
There are 4 groups of distinct atoms

 Group   1 Type Co  : 17s12p7d2f1g contracted to 10s7p4d2f1g pattern {8111111111/6111111/4111/11/1}
 Group   2 Type N   : 11s6p2d1f contracted to 6s3p2d1f pattern {611111/411/11/1}
 Group   3 Type C   : 11s6p2d1f contracted to 6s3p2d1f pattern {611111/411/11/1}
 Group   4 Type H   : 5s2p1d contracted to 3s2p1d pattern {311/11/1}

Atom   0Co   basis set group =>   1
Atom   1N    basis set group =>   2
Atom   2C    basis set group =>   3
Atom   3C    basis set group =>   3
Atom   4H    basis set group =>   4
Atom   5H    basis set group =>   4
Atom   6C    basis set group =>   3
Atom   7C    basis set group =>   3
Atom   8H    basis set group =>   4
Atom   9H    basis set group =>   4
Atom  10H    basis set group =>   4
Atom  11H    basis set group =>   4
Atom  12H    basis set group =>   4
Atom  13N    basis set group =>   2
Atom  14C    basis set group =>   3
Atom  15C    basis set group =>   3
Atom  16H    basis set group =>   4
Atom  17H    basis set group =>   4
Atom  18C    basis set group =>   3
Atom  19C    basis set group =>   3
Atom  20H    basis set group =>   4
Atom  21H    basis set group =>   4
Atom  22H    basis set group =>   4
Atom  23H    basis set group =>   4
Atom  24H    basis set group =>   4
---------------------------------
AUXILIARY/J BASIS SET INFORMATION
---------------------------------
There are 4 groups of distinct atoms

 Group   1 Type Co  : 22s18p17d17f16g6h3i contracted to 22s18p17d17f16g6h3i pattern {1111111111111111111111/111111111111111111/11111111111111111/11111111111111111/1111111111111111/111111/111}
 Group   2 Type N   : 16s13p12d7f3g contracted to 16s13p12d7f3g pattern {1111111111111111/1111111111111/111111111111/1111111/111}
 Group   3 Type C   : 16s13p12d7f3g contracted to 16s13p12d7f3g pattern {1111111111111111/1111111111111/111111111111/1111111/111}
 Group   4 Type H   : 11s4p3d2f contracted to 11s4p3d2f pattern {11111111111/1111/111/11}

Atom   0Co   basis set group =>   1
Atom   1N    basis set group =>   2
Atom   2C    basis set group =>   3
Atom   3C    basis set group =>   3
Atom   4H    basis set group =>   4
Atom   5H    basis set group =>   4
Atom   6C    basis set group =>   3
Atom   7C    basis set group =>   3
Atom   8H    basis set group =>   4
Atom   9H    basis set group =>   4
Atom  10H    basis set group =>   4
Atom  11H    basis set group =>   4
Atom  12H    basis set group =>   4
Atom  13N    basis set group =>   2
Atom  14C    basis set group =>   3
Atom  15C    basis set group =>   3
Atom  16H    basis set group =>   4
Atom  17H    basis set group =>   4
Atom  18C    basis set group =>   3
Atom  19C    basis set group =>   3
Atom  20H    basis set group =>   4
Atom  21H    basis set group =>   4
Atom  22H    basis set group =>   4
Atom  23H    basis set group =>   4
Atom  24H    basis set group =>   4
---------------------------------
AUXILIARY/C BASIS SET INFORMATION
---------------------------------
There are 4 groups of distinct atoms

 Group   1 Type Co  : 22s18p17d17f16g6h3i contracted to 22s18p17d17f16g6h3i pattern {1111111111111111111111/111111111111111111/11111111111111111/11111111111111111/1111111111111111/111111/111}
 Group   2 Type N   : 16s13p12d7f3g contracted to 16s13p12d7f3g pattern {1111111111111111/1111111111111/111111111111/1111111/111}
 Group   3 Type C   : 16s13p12d7f3g contracted to 16s13p12d7f3g pattern {1111111111111111/1111111111111/111111111111/1111111/111}
 Group   4 Type H   : 11s4p3d2f contracted to 11s4p3d2f pattern {11111111111/1111/111/11}

Atom   0Co   basis set group =>   1
Atom   1N    basis set group =>   2
Atom   2C    basis set group =>   3
Atom   3C    basis set group =>   3
Atom   4H    basis set group =>   4
Atom   5H    basis set group =>   4
Atom   6C    basis set group =>   3
Atom   7C    basis set group =>   3
Atom   8H    basis set group =>   4
Atom   9H    basis set group =>   4
Atom  10H    basis set group =>   4
Atom  11H    basis set group =>   4
Atom  12H    basis set group =>   4
Atom  13N    basis set group =>   2
Atom  14C    basis set group =>   3
Atom  15C    basis set group =>   3
Atom  16H    basis set group =>   4
Atom  17H    basis set group =>   4
Atom  18C    basis set group =>   3
Atom  19C    basis set group =>   3
Atom  20H    basis set group =>   4
Atom  21H    basis set group =>   4
Atom  22H    basis set group =>   4
Atom  23H    basis set group =>   4
Atom  24H    basis set group =>   4
----------------------------------
AUXILIARY/JK BASIS SET INFORMATION
----------------------------------
There are 4 groups of distinct atoms

 Group   1 Type Co  : 22s18p17d17f16g6h3i contracted to 22s18p17d17f16g6h3i pattern {1111111111111111111111/111111111111111111/11111111111111111/11111111111111111/1111111111111111/111111/111}
 Group   2 Type N   : 16s13p12d7f3g contracted to 16s13p12d7f3g pattern {1111111111111111/1111111111111/111111111111/1111111/111}
 Group   3 Type C   : 16s13p12d7f3g contracted to 16s13p12d7f3g pattern {1111111111111111/1111111111111/111111111111/1111111/111}
 Group   4 Type H   : 11s4p3d2f contracted to 11s4p3d2f pattern {11111111111/1111/111/11}

Atom   0Co   basis set group =>   1
Atom   1N    basis set group =>   2
Atom   2C    basis set group =>   3
Atom   3C    basis set group =>   3
Atom   4H    basis set group =>   4
Atom   5H    basis set group =>   4
Atom   6C    basis set group =>   3
Atom   7C    basis set group =>   3
Atom   8H    basis set group =>   4
Atom   9H    basis set group =>   4
Atom  10H    basis set group =>   4
Atom  11H    basis set group =>   4
Atom  12H    basis set group =>   4
Atom  13N    basis set group =>   2
Atom  14C    basis set group =>   3
Atom  15C    basis set group =>   3
Atom  16H    basis set group =>   4
Atom  17H    basis set group =>   4
Atom  18C    basis set group =>   3
Atom  19C    basis set group =>   3
Atom  20H    basis set group =>   4
Atom  21H    basis set group =>   4
Atom  22H    basis set group =>   4
Atom  23H    basis set group =>   4
Atom  24H    basis set group =>   4


           ************************************************************
           *        Program running with 10 parallel MPI-processes    *
           *              working on a common directory               *
           ************************************************************
------------------------------------------------------------------------------
                           ORCA GTO INTEGRAL CALCULATION
                           -- RI-GTO INTEGRALS CHOSEN --
------------------------------------------------------------------------------
------------------------------------------------------------------------------
                   ___                                                        
                  /   \      - P O W E R E D   B Y -                         
                 /     \                                                     
                 |  |  |   _    _      __       _____    __    __             
                 |  |  |  | |  | |    /  \     |  _  \  |  |  /  |          
                  \  \/   | |  | |   /    \    | | | |  |  | /  /          
                 / \  \   | |__| |  /  /\  \   | |_| |  |  |/  /          
                |  |  |   |  __  | /  /__\  \  |    /   |      \           
                |  |  |   | |  | | |   __   |  |    \   |  |\   \          
                \     /   | |  | | |  |  |  |  | |\  \  |  | \   \       
                 \___/    |_|  |_| |__|  |__|  |_| \__\ |__|  \__/        
                                                                              
                      - O R C A' S   B I G   F R I E N D -                    
                                      &                                       
                       - I N T E G R A L  F E E D E R -                       
                                                                              
 v1 FN, 2020, v2 2021                                                         
------------------------------------------------------------------------------


Reading SHARK input file rho.SHARKINP.tmp ... ok
----------------------
SHARK INTEGRAL PACKAGE
----------------------

Number of atoms                             ...     25
Number of basis functions                   ...    590
Number of shells                            ...    228
Maximum angular momentum                    ...      4
Integral batch strategy                     ... SHARK/LIBINT Hybrid
RI-J (if used) integral strategy            ... SPLIT-RIJ (Revised 2003 algorithm where possible)
Printlevel                                  ...      1
Contraction scheme used                     ... SEGMENTED contraction
Coulomb Range Separation                    ... NOT USED
Exchange Range Separation                   ... NOT USED
Finite Nucleus Model                        ... NOT USED
Auxiliary Coulomb fitting basis             ... AVAILABLE
   # of basis functions in Aux-J            ...   3167
   # of shells in Aux-J                     ...    889
   Maximum angular momentum in Aux-J        ...      6
Auxiliary J/K fitting basis                 ... AVAILABLE
   # of basis functions in Aux-JK           ...   3167
   # of shells in Aux-JK                    ...    889
   Maximum angular momentum in Aux-JK       ...      6
Auxiliary Correlation fitting basis         ... AVAILABLE
   # of basis functions in Aux-C            ...   3167
   # of shells in Aux-C                     ...    889
   Maximum angular momentum in Aux-C        ...      6
Auxiliary 'external' fitting basis          ... NOT available
Integral threshold                          ...     1.000000e-12
Primitive cut-off                           ...     1.000000e-14
Primitive pair pre-selection threshold      ...     1.000000e-14

Calculating pre-screening integrals         ... done (  0.1 sec) Dimension = 228
Organizing shell pair data                  ... done (  0.1 sec)
Shell pair information
Total number of shell pairs                 ...     26106
Shell pairs after pre-screening             ...     19031
Total number of primitive shell pairs       ...     62077
Primitive shell pairs kept                  ...     34709
          la=0 lb=0:   4562 shell pairs
          la=1 lb=0:   5431 shell pairs
          la=1 lb=1:   1652 shell pairs
          la=2 lb=0:   3036 shell pairs
          la=2 lb=1:   1788 shell pairs
          la=2 lb=2:    498 shell pairs
          la=3 lb=0:    952 shell pairs
          la=3 lb=1:    576 shell pairs
          la=3 lb=2:    302 shell pairs
          la=3 lb=3:     58 shell pairs
          la=4 lb=0:     82 shell pairs
          la=4 lb=1:     55 shell pairs
          la=4 lb=2:     26 shell pairs
          la=4 lb=3:     12 shell pairs
          la=4 lb=4:      1 shell pairs

Calculating one electron integrals          ... done (  0.0 sec)
Calculating RI/J V-Matrix + Cholesky decomp.... done (  0.5 sec)
Calculating RI/JK V-Matrix + Cholesky decomp... done (  0.4 sec)
Calculating RI/C V-Matrix + Cholesky decomp.... done (  0.4 sec)
Calculating Nuclear repulsion               ... done (  0.0 sec) ENN=    820.743967250027 Eh

SHARK setup successfully completed in   2.3 seconds

Maximum memory used throughout the entire GTOINT-calculation: 58.0 MB


           ************************************************************
           *        Program running with 10 parallel MPI-processes    *
           *              working on a common directory               *
           ************************************************************
------------------------------------------------------------------------------
                          ORCA RELATIVISTIC HAMILTONIAN
------------------------------------------------------------------------------

Relativistic Method            ... DKH
Order of DKH treatment         ...   2
Treatment of potential         ... V(e,N)
Eps parameter for DKH          ...   0.00000000010000
Nucleus model                  ... Point Nucleus
Speed of light used            ... 137.03598950000000


            ************************************************
            *        DOUGLAS-KROLL-HESS HAMILTONIAN        *
            *   Programmed by FN according to literature   *
            *        procedures. Special thanks to         *
            *       B.A. Hess, M. Reiher and A. Wolf       *
            *     University Erlangen-Nuernberg/Bonn       *
            ************************************************

Uncontracting the basis (first version)        ... done
Number of contracted basis functions           ...  590
Number of uncontracted basis functions         ...  795
Initializing the DKH file                      ... done
Calculating the relativistic integrals         ... done
Storing DKH matrices                           ... done
Code used for DKH trafo                        ... ORCA
Computing the DKH transformation               ... done
Storing the transformation variables           ... done
Transforming V and pVp to p**2 space           ... done
First transformation of V and pVp              ... done
Second transformation of Veff                  ... done
Adding kinetic energy                          ... done
Back transformation of Veff to r-space         ... done
Recovering DKH matrices                        ... done
Recontracting the H-matrix (first version)     ... done
Computing the DKH correction to the H-matrix   ... done
Reading the original H-matrix                  ... done
Adding DKH correction to the H-matrix          ... done
Storing the new modified H-matrix              ... done

Maximum memory used throughout the entire REL-calculation: 82.4 MB


           ************************************************************
           *        Program running with 10 parallel MPI-processes    *
           *              working on a common directory               *
           ************************************************************
-------------------------------------------------------------------------------
                                 ORCA SCF
-------------------------------------------------------------------------------

------------
SCF SETTINGS
------------
Hamiltonian:
 Ab initio Hamiltonian  Method          .... Hartree-Fock(GTOs)
 RI-approximation to the Coulomb term is turned on
   Number of AuxJ basis functions       .... 3167
   RIJ-COSX (HFX calculated with COS-X)).... on

Relativistic Settings:
 Scalar relativistic method             .... Douglas-Kroll-Hess
 Order of DKH procedure    Order        ....    2
 Mode of DKH-treatment                  .... V=V(e,N)
 Speed of light used       Velit        ....       137.035989
 Cutoff-constant           Eps          ....            1e-10 


General Settings:
 Integral files         IntName         .... rho
 Hartree-Fock type      HFTyp           .... CASSCF
 Total Charge           Charge          ....    2
 Multiplicity           Mult            ....    4
 Number of Electrons    NEL             ....  101
 Basis Dimension        Dim             ....  590
 Nuclear Repulsion      ENuc            ....    820.7439672500 Eh


Diagonalization of the overlap matrix:
Smallest eigenvalue                        ... 8.196e-05
Time for diagonalization                   ...    0.049 sec
Threshold for overlap eigenvalues          ... 1.000e-08
Number of eigenvalues below threshold      ... 0
Time for construction of square roots      ...    0.045 sec
Total time needed                          ...    0.096 sec

---------------------
INITIAL GUESS: MOREAD
---------------------
Guess MOs are being read from file: orb.gbw
Input Geometry matches current geometry (good)
Input basis set matches current basis set (good)
MOs were renormalized
Gram-Schmidt orthogonalization of all MOs with pivot on actives
                      ------------------
                      INITIAL GUESS DONE (   1.3 sec)
                      ------------------
--------------------
COSX GRID GENERATION
--------------------

GRIDX 1
-------
General Integration Accuracy     IntAcc      ... 3.816
Radial Grid Type                 RadialGrid  ... OptM3 with GC (2021)
Angular Grid (max. ang.)         AngularGrid ... 1 (Lebedev-50)
Angular grid pruning method      GridPruning ... 4 (adaptive)
Weight generation scheme         WeightScheme... Becke
Basis function cutoff            BFCut       ... 1.0000e-12
Integration weight cutoff        WCut        ... 1.0000e-14
Angular grids for H and He will be reduced by one unit
Partially contracted basis set               ... on
Rotationally invariant grid construction     ... off

Total number of grid points                  ...    14691
Total number of batches                      ...      243
Average number of points per batch           ...       60
Average number of grid points per atom       ...      588

GRIDX 2
-------
General Integration Accuracy     IntAcc      ... 4.020
Radial Grid Type                 RadialGrid  ... OptM3 with GC (2021)
Angular Grid (max. ang.)         AngularGrid ... 2 (Lebedev-110)
Angular grid pruning method      GridPruning ... 4 (adaptive)
Weight generation scheme         WeightScheme... Becke
Basis function cutoff            BFCut       ... 1.0000e-12
Integration weight cutoff        WCut        ... 1.0000e-14
Angular grids for H and He will be reduced by one unit
Partially contracted basis set               ... on
Rotationally invariant grid construction     ... off

Total number of grid points                  ...    31051
Total number of batches                      ...      496
Average number of points per batch           ...       62
Average number of grid points per atom       ...     1242

GRIDX 3
-------
General Integration Accuracy     IntAcc      ... 4.338
Radial Grid Type                 RadialGrid  ... OptM3 with GC (2021)
Angular Grid (max. ang.)         AngularGrid ... 3 (Lebedev-194)
Angular grid pruning method      GridPruning ... 4 (adaptive)
Weight generation scheme         WeightScheme... Becke
Basis function cutoff            BFCut       ... 1.0000e-12
Integration weight cutoff        WCut        ... 1.0000e-14
Angular grids for H and He will be reduced by one unit
Partially contracted basis set               ... on
Rotationally invariant grid construction     ... off

Total number of grid points                  ...    67922
Total number of batches                      ...     1075
Average number of points per batch           ...       63
Average number of grid points per atom       ...     2717

Time for X-Grid setup             =    0.684 sec



 ... the calculation is a CASSCF calculation -I'm leaving here GOOD LUCK!!!



           ************************************************************
           *        Program running with 10 parallel MPI-processes    *
           *              working on a common directory               *
           ************************************************************
-------------------------------------------------------------------------------
                              ORCA-CASSCF
-------------------------------------------------------------------------------

Setting up the integral package       ... done
Setting up the integral package (RI)  ... done
Building the CAS space                ... done (10 configurations for Mult=4)
Building the CAS space                ... done (30 configurations for Mult=2)

SYSTEM-SPECIFIC SETTINGS:
Number of active electrons          ...    7
Number of active orbitals           ...    5
Total number of electrons           ...  101
Total number of orbitals            ...  590
Total number aux. functions         ... 3167

Determined orbital ranges:
   Internal       0 -   46 (  47 orbitals)
   Active        47 -   51 (   5 orbitals)
   External      52 -  589 ( 538 orbitals)
Number of rotation parameters      ...  28211

CI-STEP:
CI strategy                         ... General CI
Number of multiplicity blocks       ...    2
BLOCK  1 WEIGHT=   0.5000
  Multiplicity                      ...    4
  #(Configurations)                 ...   10
  #(CSFs)                           ...   10
  #(Roots)                          ...   10
    ROOT=0 WEIGHT=    0.050000
    ROOT=1 WEIGHT=    0.050000
    ROOT=2 WEIGHT=    0.050000
    ROOT=3 WEIGHT=    0.050000
    ROOT=4 WEIGHT=    0.050000
    ROOT=5 WEIGHT=    0.050000
    ROOT=6 WEIGHT=    0.050000
    ROOT=7 WEIGHT=    0.050000
    ROOT=8 WEIGHT=    0.050000
    ROOT=9 WEIGHT=    0.050000

BLOCK  2 WEIGHT=   0.5000
  Multiplicity                      ...    2
  #(Configurations)                 ...   30
  #(CSFs)                           ...   40
  #(Roots)                          ...   40
    ROOT=0 WEIGHT=    0.012500
    ROOT=1 WEIGHT=    0.012500
    ROOT=2 WEIGHT=    0.012500
    ROOT=3 WEIGHT=    0.012500
    ROOT=4 WEIGHT=    0.012500
    ROOT=5 WEIGHT=    0.012500
    ROOT=6 WEIGHT=    0.012500
    ROOT=7 WEIGHT=    0.012500
    ROOT=8 WEIGHT=    0.012500
    ROOT=9 WEIGHT=    0.012500
    ROOT=10 WEIGHT=    0.012500
    ROOT=11 WEIGHT=    0.012500
    ROOT=12 WEIGHT=    0.012500
    ROOT=13 WEIGHT=    0.012500
    ROOT=14 WEIGHT=    0.012500
    ROOT=15 WEIGHT=    0.012500
    ROOT=16 WEIGHT=    0.012500
    ROOT=17 WEIGHT=    0.012500
    ROOT=18 WEIGHT=    0.012500
    ROOT=19 WEIGHT=    0.012500
    ROOT=20 WEIGHT=    0.012500
    ROOT=21 WEIGHT=    0.012500
    ROOT=22 WEIGHT=    0.012500
    ROOT=23 WEIGHT=    0.012500
    ROOT=24 WEIGHT=    0.012500
    ROOT=25 WEIGHT=    0.012500
    ROOT=26 WEIGHT=    0.012500
    ROOT=27 WEIGHT=    0.012500
    ROOT=28 WEIGHT=    0.012500
    ROOT=29 WEIGHT=    0.012500
    ROOT=30 WEIGHT=    0.012500
    ROOT=31 WEIGHT=    0.012500
    ROOT=32 WEIGHT=    0.012500
    ROOT=33 WEIGHT=    0.012500
    ROOT=34 WEIGHT=    0.012500
    ROOT=35 WEIGHT=    0.012500
    ROOT=36 WEIGHT=    0.012500
    ROOT=37 WEIGHT=    0.012500
    ROOT=38 WEIGHT=    0.012500
    ROOT=39 WEIGHT=    0.012500

  PrintLevel                        ...    1
  N(GuessMat)                       ...       512
  MaxDim(CI)                        ...        10
  MaxIter(CI)                       ...        64
  Energy Tolerance CI               ...  1.00e-09
  Residual Tolerance CI             ...  1.00e-09
  Shift(CI)                         ...  1.00e-04

INTEGRAL-TRANSFORMATION-STEP:
  Algorithm                         ... RI-MO

ORBITAL-IMPROVEMENT-STEP:
  Algorithm                         ... SuperCI
  Default Parametrization           ... CAYLEY
  Act-Act rotations                 ... depends on algorithm used
  FreezeIE                          ... 95.00% of ||g||
  Until reaching FreezeIE rotations with active orbitals are damped. 

  Approx. Fock at                   ... 0.000000e+00 density convergence
  Level shift                       ... energy gap dependent. Minimum=1.000
  Switch step at gradient           ...  3.00e-02 
  Switch step at iteration          ...        50   
  Switch step to                    ... DIIS    

SCF-SETTINGS:
  Incremental                       ... off
  RIJCOSX approximation             ... on
  UseFinalGrid                      ... on
  RI-JK approximation               ... off
  AO integral handling              ... DIRECT
  Integral Neglect Thresh           ...  1.00e-12
  Primitive cutoff TCut             ...  1.00e-14
  Energy convergence tolerance      ...  1.00e-08
  Orbital gradient convergence      ...  1.00e-05
  Max. number of iterations         ...       100  


PROPERTIES-SETTINGS:
  Spin orbit coupling               ... true
  GTensor                           ... true

FINAL ORBITALS:
  Active   Orbitals                 ... d-orbitals 
  Internal Orbitals                 ... canonical 
  External Orbitals                 ... canonical 

------------------
CAS-SCF ITERATIONS
------------------


MACRO-ITERATION   1: 
   --- Canonicalize Internal Space
   --- Canonicalize External Space
   --- Inactive Energy E0 = -1786.45518428 Eh
CI-ITERATION   0: 
 -1811.653973905   0.000000000000 (    0.00)
 -1811.653948133   0.000000000000
 -1811.645758327   0.000000000000
 -1811.640969794   0.000000000000
 -1811.640283226   0.000000000000
 -1811.633979127   0.000000000000
 -1811.633921341   0.000000000000
 -1811.577173567   0.000000000000
 -1811.554378328   0.000000000000
 -1811.546816551   0.000000000000
   CI-PROBLEM SOLVED
   DENSITIES MADE
CI-ITERATION   0: 
 -1811.577127206   0.000000000000 (    0.00)
 -1811.577111800   0.000000000000
 -1811.571208932   0.000000000000
 -1811.570008356   0.000000000000
 -1811.566807527   0.000000000000
 -1811.565922823   0.000000000000
 -1811.563829359   0.000000000000
 -1811.553364684   0.000000000000
 -1811.553278373   0.000000000000
 -1811.552846800   0.000000000000
 -1811.552262415   0.000000000000
 -1811.552254133   0.000000000000
 -1811.538986957   0.000000000000
 -1811.538075602   0.000000000000
 -1811.537897068   0.000000000000
 -1811.535594760   0.000000000000
 -1811.533927596   0.000000000000
 -1811.530734150   0.000000000000
 -1811.530613968   0.000000000000
 -1811.529881904   0.000000000000
 -1811.526454349   0.000000000000
 -1811.525998485   0.000000000000
 -1811.523281081   0.000000000000
 -1811.519786876   0.000000000000
 -1811.517448767   0.000000000000
 -1811.515155806   0.000000000000
 -1811.510773302   0.000000000000
 -1811.510773192   0.000000000000
 -1811.459611572   0.000000000000
 -1811.457242427   0.000000000000
 -1811.453492612   0.000000000000
 -1811.448808846   0.000000000000
 -1811.448071319   0.000000000000
 -1811.444323698   0.000000000000
 -1811.444309500   0.000000000000
 -1811.357737666   0.000000000000
 -1811.351240475   0.000000000000
 -1811.348627904   0.000000000000
 -1811.322039182   0.000000000000
 -1811.321814576   0.000000000000
   CI-PROBLEM SOLVED
   DENSITIES MADE

                 <<<<<<<<<<<<<<<<<<INITIAL CI STATE CHECK>>>>>>>>>>>>>>>>>>

BLOCK  1 MULT= 4 NROOTS=10 
ROOT   0:  E=   -1811.6539739049 Eh
      0.35781 [     5]: 12211
      0.21074 [     8]: 21211
      0.19668 [     3]: 12112
      0.13959 [     7]: 21121
      0.03054 [     6]: 21112
      0.02389 [     0]: 11122
      0.01945 [     1]: 11212
      0.01727 [     2]: 11221
ROOT   1:  E=   -1811.6539481328 Eh  0.001 eV      5.7 cm**-1
      0.54281 [     9]: 22111
      0.12663 [     2]: 11221
      0.10875 [     1]: 11212
      0.08646 [     5]: 12211
      0.06448 [     3]: 12112
      0.03466 [     0]: 11122
      0.02741 [     8]: 21211
      0.00835 [     6]: 21112
ROOT   2:  E=   -1811.6457583272 Eh  0.224 eV   1803.1 cm**-1
      0.40921 [     3]: 12112
      0.18743 [     7]: 21121
      0.17673 [     8]: 21211
      0.09630 [     2]: 11221
      0.07018 [     4]: 12121
      0.03688 [     5]: 12211
      0.00934 [     9]: 22111
      0.00823 [     6]: 21112
      0.00358 [     0]: 11122
ROOT   3:  E=   -1811.6409697935 Eh  0.354 eV   2854.1 cm**-1
      0.18298 [     7]: 21121
      0.17770 [     5]: 12211
      0.13801 [     3]: 12112
      0.12042 [     9]: 22111
      0.10318 [     6]: 21112
      0.10265 [     8]: 21211
      0.05818 [     2]: 11221
      0.04948 [     1]: 11212
      0.03824 [     4]: 12121
      0.02917 [     0]: 11122
ROOT   4:  E=   -1811.6402832259 Eh  0.373 eV   3004.8 cm**-1
      0.63709 [     0]: 11122
      0.14578 [     9]: 22111
      0.08546 [     1]: 11212
      0.05804 [     5]: 12211
      0.05528 [     2]: 11221
      0.01584 [     6]: 21112
ROOT   5:  E=   -1811.6339791268 Eh  0.544 eV   4388.3 cm**-1
      0.41494 [     2]: 11221
      0.34796 [     1]: 11212
      0.09009 [     6]: 21112
      0.08748 [     7]: 21121
      0.03537 [     8]: 21211
      0.00953 [     0]: 11122
      0.00690 [     4]: 12121
      0.00495 [     3]: 12112
ROOT   6:  E=   -1811.6339213413 Eh  0.546 eV   4401.0 cm**-1
      0.23295 [     7]: 21121
      0.19361 [     8]: 21211
      0.19246 [     6]: 21112
      0.16237 [     4]: 12121
      0.06814 [     3]: 12112
      0.06755 [     5]: 12211
      0.06266 [     9]: 22111
      0.01117 [     2]: 11221
      0.00869 [     1]: 11212
ROOT   7:  E=   -1811.5771735674 Eh  2.090 eV  16855.7 cm**-1
      0.24468 [     4]: 12121
      0.22452 [     8]: 21211
      0.19569 [     6]: 21112
      0.15445 [     5]: 12211
      0.10653 [     1]: 11212
      0.04977 [     9]: 22111
      0.01989 [     3]: 12112
      0.00276 [     0]: 11122
ROOT   8:  E=   -1811.5543783279 Eh  2.710 eV  21858.7 cm**-1
      0.46056 [     4]: 12121
      0.27668 [     6]: 21112
      0.09213 [     3]: 12112
      0.06577 [     1]: 11212
      0.02848 [     2]: 11221
      0.02682 [     8]: 21211
      0.01641 [     9]: 22111
      0.01627 [     7]: 21121
      0.00891 [     0]: 11122
      0.00797 [     5]: 12211
ROOT   9:  E=   -1811.5468165508 Eh  2.916 eV  23518.3 cm**-1
      0.25003 [     0]: 11122
      0.20578 [     1]: 11212
      0.19173 [     2]: 11221
      0.15109 [     7]: 21121
      0.07894 [     6]: 21112
      0.05222 [     5]: 12211
      0.04866 [     9]: 22111
      0.01497 [     4]: 12121
      0.00445 [     3]: 12112

BLOCK  2 MULT= 2 NROOTS=40 
ROOT   0:  E=   -1811.5771272062 Eh
      0.22198 [     9]: 12112
      0.16827 [    12]: 12211
      0.10466 [    19]: 21121
      0.10207 [    21]: 21211
      0.05999 [    10]: 12121
      0.04833 [     7]: 11221
      0.04335 [     2]: 02212
      0.04110 [    20]: 21202
      0.03919 [     6]: 11212
      0.03824 [    11]: 12202
      0.02339 [     5]: 11122
      0.02188 [    13]: 12220
      0.01873 [    18]: 21112
      0.01690 [    23]: 22012
      0.01595 [     3]: 02221
      0.01309 [     1]: 02122
      0.00573 [     4]: 10222
      0.00493 [    26]: 22111
      0.00305 [     8]: 12022
      0.00254 [    16]: 20221
ROOT   1:  E=   -1811.5771117998 Eh  0.000 eV      3.4 cm**-1
      0.31012 [    26]: 22111
      0.16540 [     9]: 12112
      0.08329 [    25]: 22102
      0.07523 [    12]: 12211
      0.05527 [    10]: 12121
      0.05402 [    24]: 22021
      0.05048 [    23]: 22012
      0.03769 [    16]: 20221
      0.03567 [    27]: 22120
      0.02534 [    11]: 12202
      0.01976 [     7]: 11221
      0.01746 [     3]: 02221
      0.01594 [     8]: 12022
      0.00956 [    13]: 12220
      0.00814 [    29]: 22210
      0.00681 [    18]: 21112
      0.00598 [    14]: 20122
      0.00558 [    21]: 21211
      0.00503 [     5]: 11122
      0.00361 [     6]: 11212
      0.00317 [     1]: 02122
      0.00297 [    20]: 21202
ROOT   2:  E=   -1811.5712089323 Eh  0.161 eV   1298.9 cm**-1
      0.20091 [    28]: 22201
      0.13562 [    12]: 12211
      0.12726 [    26]: 22111
      0.10672 [    25]: 22102
      0.08460 [    27]: 22120
      0.08028 [    29]: 22210
      0.02797 [    19]: 21121
      0.02541 [     1]: 02122
      0.02517 [    24]: 22021
      0.02006 [     7]: 11221
      0.01988 [     6]: 11212
      0.01949 [    10]: 12121
      0.01921 [    23]: 22012
      0.01800 [    13]: 12220
      0.01445 [    14]: 20122
      0.01180 [     4]: 10222
      0.00947 [     9]: 12112
      0.00927 [    22]: 21220
      0.00829 [     5]: 11122
      0.00703 [     2]: 02212
      0.00575 [    15]: 20212
      0.00548 [    16]: 20221
      0.00512 [     3]: 02221
      0.00388 [    21]: 21211
      0.00352 [    18]: 21112
      0.00318 [     0]: 01222
ROOT   3:  E=   -1811.5700083555 Eh  0.194 eV   1562.4 cm**-1
      0.27020 [    11]: 12202
      0.18217 [    22]: 21220
      0.10128 [     7]: 11221
      0.07148 [    13]: 12220
      0.05590 [    25]: 22102
      0.05425 [     9]: 12112
      0.05406 [    19]: 21121
      0.02887 [    17]: 21022
      0.02512 [    20]: 21202
      0.02348 [    28]: 22201
      0.02322 [    21]: 21211
      0.02076 [     8]: 12022
      0.01502 [     6]: 11212
      0.01455 [     3]: 02221
      0.01136 [    29]: 22210
      0.01068 [    26]: 22111
      0.01030 [     2]: 02212
      0.00760 [    27]: 22120
      0.00628 [    10]: 12121
      0.00437 [     1]: 02122
      0.00259 [    12]: 12211
ROOT   4:  E=   -1811.5668075269 Eh  0.281 eV   2264.9 cm**-1
      0.18328 [    26]: 22111
      0.14287 [     5]: 11122
      0.12976 [     6]: 11212
      0.12552 [     0]: 01222
      0.06243 [     7]: 11221
      0.05527 [    17]: 21022
      0.04213 [    25]: 22102
      0.03093 [    27]: 22120
      0.02735 [     9]: 12112
      0.02235 [    12]: 12211
      0.02100 [    19]: 21121
      0.01959 [    18]: 21112
      0.01921 [    29]: 22210
      0.01861 [    21]: 21211
      0.01849 [    15]: 20212
      0.01328 [     3]: 02221
      0.01238 [    22]: 21220
      0.01079 [    10]: 12121
      0.01046 [     8]: 12022
      0.00924 [    28]: 22201
      0.00893 [    23]: 22012
      0.00730 [    24]: 22021
      0.00595 [     4]: 10222
ROOT   5:  E=   -1811.5659228234 Eh  0.305 eV   2459.1 cm**-1
      0.13753 [    18]: 21112
      0.11423 [     5]: 11122
      0.11319 [    21]: 21211
      0.11059 [    19]: 21121
      0.10627 [     9]: 12112
      0.08040 [    12]: 12211
      0.04762 [    10]: 12121
      0.03964 [    17]: 21022
      0.03097 [     1]: 02122
      0.02698 [     7]: 11221
      0.02500 [     8]: 12022
      0.02469 [    26]: 22111
      0.02465 [     2]: 02212
      0.02268 [    24]: 22021
      0.02090 [     4]: 10222
      0.01595 [     6]: 11212
      0.01442 [     0]: 01222
      0.01154 [    27]: 22120
      0.00725 [    23]: 22012
      0.00669 [    29]: 22210
      0.00497 [    28]: 22201
      0.00438 [    14]: 20122
      0.00287 [    13]: 12220
      0.00284 [    25]: 22102
ROOT   6:  E=   -1811.5638293586 Eh  0.362 eV   2918.5 cm**-1
      0.19553 [    28]: 22201
      0.18568 [    29]: 22210
      0.10815 [     6]: 11212
      0.09504 [     5]: 11122
      0.05352 [     7]: 11221
      0.04301 [    24]: 22021
      0.03550 [    18]: 21112
      0.03454 [     3]: 02221
      0.03248 [     0]: 01222
      0.03237 [    19]: 21121
      0.02794 [    23]: 22012
      0.02722 [    12]: 12211
      0.02398 [    26]: 22111
      0.01481 [    17]: 21022
      0.01414 [    14]: 20122
      0.01384 [    27]: 22120
      0.01247 [     4]: 10222
      0.01034 [     9]: 12112
      0.00986 [    15]: 20212
      0.00863 [     2]: 02212
      0.00856 [    13]: 12220
      0.00627 [    25]: 22102
ROOT   7:  E=   -1811.5533646838 Eh  0.647 eV   5215.3 cm**-1
      0.15484 [    21]: 21211
      0.09582 [    12]: 12211
      0.08156 [    19]: 21121
      0.07747 [     2]: 02212
      0.07176 [     5]: 11122
      0.06930 [    26]: 22111
      0.06866 [    17]: 21022
      0.06320 [     8]: 12022
      0.05339 [     9]: 12112
      0.04755 [    23]: 22012
      0.04368 [    18]: 21112
      0.03221 [    22]: 21220
      0.02729 [     7]: 11221
      0.02283 [     1]: 02122
      0.02245 [     6]: 11212
      0.02199 [     0]: 01222
      0.02122 [    11]: 12202
      0.01001 [    10]: 12121
      0.00573 [    29]: 22210
      0.00330 [    28]: 22201
ROOT   8:  E=   -1811.5532783730 Eh  0.649 eV   5234.2 cm**-1
      0.20442 [    29]: 22210
      0.18659 [    28]: 22201
      0.07442 [    25]: 22102
      0.06888 [     1]: 02122
      0.05198 [    27]: 22120
      0.05107 [    14]: 20122
      0.05027 [    15]: 20212
      0.04182 [     7]: 11221
      0.04027 [    11]: 12202
      0.03519 [     6]: 11212
      0.02819 [    13]: 12220
      0.02573 [     4]: 10222
      0.02198 [     8]: 12022
      0.02054 [     9]: 12112
      0.01659 [     3]: 02221
      0.01374 [    26]: 22111
      0.01005 [    19]: 21121
      0.00982 [    18]: 21112
      0.00894 [     5]: 11122
      0.00882 [     0]: 01222
      0.00750 [    23]: 22012
      0.00700 [    24]: 22021
      0.00467 [    12]: 12211
      0.00455 [     2]: 02212
ROOT   9:  E=   -1811.5528468002 Eh  0.661 eV   5328.9 cm**-1
      0.17456 [    22]: 21220
      0.11035 [    11]: 12202
      0.07806 [    19]: 21121
      0.06894 [     7]: 11221
      0.06826 [    10]: 12121
      0.06530 [    21]: 21211
      0.06276 [    25]: 22102
      0.05575 [    18]: 21112
      0.05304 [    20]: 21202
      0.04282 [     6]: 11212
      0.03894 [     2]: 02212
      0.03782 [    23]: 22012
      0.02568 [     1]: 02122
      0.02546 [     8]: 12022
      0.01761 [    12]: 12211
      0.01712 [     9]: 12112
      0.01664 [    26]: 22111
      0.00844 [    17]: 21022
      0.00650 [     0]: 01222
      0.00605 [    28]: 22201
      0.00573 [     4]: 10222
      0.00456 [    16]: 20221
      0.00339 [    13]: 12220
      0.00270 [    14]: 20122
ROOT  10:  E=   -1811.5522624153 Eh  0.677 eV   5457.2 cm**-1
      0.16180 [    12]: 12211
      0.14002 [    19]: 21121
      0.13198 [     9]: 12112
      0.11867 [    21]: 21211
      0.06793 [    18]: 21112
      0.06583 [     5]: 11122
      0.05020 [    10]: 12121
      0.03704 [     8]: 12022
      0.02907 [     3]: 02221
      0.02831 [     4]: 10222
      0.02775 [    16]: 20221
      0.02593 [    23]: 22012
      0.01895 [    29]: 22210
      0.01822 [    26]: 22111
      0.01621 [     6]: 11212
      0.01092 [     7]: 11221
      0.00788 [     0]: 01222
      0.00773 [     2]: 02212
      0.00734 [     1]: 02122
      0.00558 [    17]: 21022
      0.00489 [    28]: 22201
      0.00337 [    24]: 22021
      0.00331 [    14]: 20122
      0.00303 [    22]: 21220
ROOT  11:  E=   -1811.5522541331 Eh  0.677 eV   5459.0 cm**-1
      0.16477 [    26]: 22111
      0.12296 [     7]: 11221
      0.11085 [     9]: 12112
      0.07296 [    16]: 20221
      0.07250 [     5]: 11122
      0.07095 [     6]: 11212
      0.06103 [     2]: 02212
      0.05123 [    24]: 22021
      0.04504 [    10]: 12121
      0.04030 [    23]: 22012
      0.03130 [    21]: 21211
      0.02854 [    29]: 22210
      0.02192 [     4]: 10222
      0.01580 [    28]: 22201
      0.01332 [    22]: 21220
      0.01161 [    19]: 21121
      0.01156 [    18]: 21112
      0.00952 [    12]: 12211
      0.00899 [     1]: 02122
      0.00882 [    14]: 20122
      0.00685 [     8]: 12022
      0.00574 [    17]: 21022
      0.00559 [    15]: 20212
      0.00375 [    25]: 22102
ROOT  12:  E=   -1811.5389869574 Eh  1.038 eV   8370.8 cm**-1
      0.26279 [    21]: 21211
      0.12195 [    12]: 12211
      0.10811 [    19]: 21121
      0.08260 [    26]: 22111
      0.08067 [     9]: 12112
      0.07025 [    18]: 21112
      0.03415 [     4]: 10222
      0.03397 [     6]: 11212
      0.03218 [    29]: 22210
      0.02976 [     7]: 11221
      0.02454 [    10]: 12121
      0.02385 [     2]: 02212
      0.02210 [     5]: 11122
      0.02123 [     8]: 12022
      0.01334 [     0]: 01222
      0.00858 [    28]: 22201
      0.00653 [     1]: 02122
      0.00630 [    27]: 22120
      0.00403 [    16]: 20221
      0.00401 [    13]: 12220
      0.00278 [     3]: 02221
ROOT  13:  E=   -1811.5380756024 Eh  1.063 eV   8570.8 cm**-1
      0.21667 [     5]: 11122
      0.11355 [    16]: 20221
      0.09596 [    29]: 22210
      0.08624 [    28]: 22201
      0.08233 [     6]: 11212
      0.05245 [    14]: 20122
      0.04279 [     7]: 11221
      0.03284 [    12]: 12211
      0.03272 [     2]: 02212
      0.02740 [    10]: 12121
      0.02515 [    21]: 21211
      0.02265 [     9]: 12112
      0.02250 [     0]: 01222
      0.02164 [    17]: 21022
      0.02023 [    23]: 22012
      0.01688 [    26]: 22111
      0.01602 [     3]: 02221
      0.01527 [     4]: 10222
      0.01412 [    18]: 21112
      0.01133 [    11]: 12202
      0.01039 [    15]: 20212
      0.00939 [    25]: 22102
      0.00411 [    13]: 12220
      0.00389 [     1]: 02122
ROOT  14:  E=   -1811.5378970682 Eh  1.068 eV   8610.0 cm**-1
      0.26452 [    21]: 21211
      0.15177 [    12]: 12211
      0.13389 [    10]: 12121
      0.08535 [    20]: 21202
      0.05530 [    13]: 12220
      0.04906 [    22]: 21220
      0.04045 [    18]: 21112
      0.04041 [    26]: 22111
      0.03944 [     9]: 12112
      0.02843 [    17]: 21022
      0.02673 [     6]: 11212
      0.01377 [    25]: 22102
      0.01317 [     7]: 11221
      0.01085 [     8]: 12022
      0.00752 [    15]: 20212
      0.00733 [     5]: 11122
      0.00725 [     0]: 01222
      0.00527 [    14]: 20122
      0.00444 [    28]: 22201
      0.00366 [    24]: 22021
ROOT  15:  E=   -1811.5355947599 Eh  1.130 eV   9115.3 cm**-1
      0.16111 [    26]: 22111
      0.13971 [     7]: 11221
      0.07442 [     2]: 02212
      0.06868 [     1]: 02122
      0.06630 [    14]: 20122
      0.05494 [    25]: 22102
      0.05488 [    27]: 22120
      0.04500 [    18]: 21112
      0.04500 [    15]: 20212
      0.03775 [     6]: 11212
      0.03721 [     4]: 10222
      0.03528 [    10]: 12121
      0.02751 [     5]: 11122
      0.02214 [    29]: 22210
      0.02192 [    11]: 12202
      0.01933 [     8]: 12022
      0.01827 [     0]: 01222
      0.01695 [    21]: 21211
      0.01456 [    19]: 21121
      0.00766 [    13]: 12220
      0.00606 [    17]: 21022
      0.00583 [     9]: 12112
      0.00558 [    16]: 20221
      0.00393 [     3]: 02221
      0.00371 [    23]: 22012
      0.00282 [    12]: 12211
      0.00256 [    20]: 21202
ROOT  16:  E=   -1811.5339275957 Eh  1.176 eV   9481.2 cm**-1
      0.16226 [    12]: 12211
      0.15103 [    19]: 21121
      0.10600 [    21]: 21211
      0.09420 [    18]: 21112
      0.07182 [    23]: 22012
      0.06723 [     5]: 11122
      0.05880 [     9]: 12112
      0.05381 [     7]: 11221
      0.03303 [     4]: 10222
      0.02740 [     8]: 12022
      0.02410 [    11]: 12202
      0.02026 [     6]: 11212
      0.01808 [    22]: 21220
      0.01671 [    10]: 12121
      0.01303 [    29]: 22210
      0.01218 [    26]: 22111
      0.01170 [     2]: 02212
      0.01119 [    27]: 22120
      0.01036 [    17]: 21022
      0.01028 [    16]: 20221
      0.00999 [     0]: 01222
      0.00719 [    24]: 22021
      0.00257 [     3]: 02221
ROOT  17:  E=   -1811.5307341501 Eh  1.262 eV  10182.1 cm**-1
      0.22333 [     6]: 11212
      0.19204 [    16]: 20221
      0.09695 [     7]: 11221
      0.08278 [    19]: 21121
      0.06565 [    18]: 21112
      0.06454 [     9]: 12112
      0.05404 [    26]: 22111
      0.03860 [     2]: 02212
      0.02552 [    27]: 22120
      0.02306 [    14]: 20122
      0.01575 [    24]: 22021
      0.01178 [     3]: 02221
      0.01083 [    28]: 22201
      0.01069 [    25]: 22102
      0.01003 [    29]: 22210
      0.00925 [    22]: 21220
      0.00859 [     4]: 10222
      0.00796 [    12]: 12211
      0.00794 [     1]: 02122
      0.00757 [    11]: 12202
      0.00731 [    13]: 12220
      0.00528 [     8]: 12022
      0.00507 [    21]: 21211
      0.00432 [    10]: 12121
      0.00296 [     5]: 11122
      0.00277 [     0]: 01222
ROOT  18:  E=   -1811.5306139682 Eh  1.266 eV  10208.5 cm**-1
      0.20708 [    22]: 21220
      0.15153 [    11]: 12202
      0.13750 [    19]: 21121
      0.08252 [    18]: 21112
      0.06489 [    23]: 22012
      0.05362 [     7]: 11221
      0.05041 [     9]: 12112
      0.04491 [    10]: 12121
      0.03072 [     2]: 02212
      0.02778 [    25]: 22102
      0.02624 [     6]: 11212
      0.01923 [    24]: 22021
      0.01842 [    21]: 21211
      0.01494 [    26]: 22111
      0.01319 [    12]: 12211
      0.01260 [    28]: 22201
      0.00965 [     1]: 02122
      0.00760 [     3]: 02221
      0.00702 [     8]: 12022
      0.00456 [     5]: 11122
      0.00287 [     0]: 01222
ROOT  19:  E=   -1811.5298819040 Eh  1.286 eV  10369.1 cm**-1
      0.12837 [     7]: 11221
      0.09966 [     6]: 11212
      0.09144 [     2]: 02212
      0.07838 [    25]: 22102
      0.07503 [    16]: 20221
      0.06999 [    28]: 22201
      0.06344 [     5]: 11122
      0.05790 [    29]: 22210
      0.05611 [    15]: 20212
      0.04832 [    27]: 22120
      0.03943 [    19]: 21121
      0.03254 [    22]: 21220
      0.03233 [    10]: 12121
      0.02529 [     0]: 01222
      0.02469 [     9]: 12112
      0.01536 [    18]: 21112
      0.01466 [    13]: 12220
      0.01112 [    21]: 21211
      0.01037 [     3]: 02221
      0.00986 [    17]: 21022
      0.00538 [    12]: 12211
      0.00288 [    24]: 22021
      0.00281 [    26]: 22111
ROOT  20:  E=   -1811.5264543492 Eh  1.379 eV  11121.4 cm**-1
      0.23979 [    18]: 21112
      0.14148 [    10]: 12121
      0.07662 [     8]: 12022
      0.06066 [    19]: 21121
      0.05220 [    21]: 21211
      0.05096 [     9]: 12112
      0.04900 [    24]: 22021
      0.04579 [     4]: 10222
      0.04136 [    13]: 12220
      0.03902 [     3]: 02221
      0.02702 [    11]: 12202
      0.02569 [     0]: 01222
      0.02538 [    17]: 21022
      0.01536 [     2]: 02212
      0.01468 [    26]: 22111
      0.01407 [    12]: 12211
      0.01209 [    20]: 21202
      0.01172 [    22]: 21220
      0.01082 [     7]: 11221
      0.00975 [     6]: 11212
      0.00910 [    27]: 22120
      0.00826 [    16]: 20221
      0.00790 [     5]: 11122
      0.00361 [    29]: 22210
      0.00343 [    15]: 20212
ROOT  21:  E=   -1811.5259984853 Eh  1.391 eV  11221.5 cm**-1
      0.11872 [    14]: 20122
      0.11512 [     6]: 11212
      0.11327 [    10]: 12121
      0.08872 [    23]: 22012
      0.08824 [     1]: 02122
      0.08389 [    15]: 20212
      0.06624 [     3]: 02221
      0.05006 [    24]: 22021
      0.04734 [    27]: 22120
      0.03821 [     5]: 11122
      0.03629 [    16]: 20221
      0.03487 [    25]: 22102
      0.02706 [     7]: 11221
      0.01519 [    17]: 21022
      0.01492 [     9]: 12112
      0.00903 [    22]: 21220
      0.00649 [     8]: 12022
      0.00638 [    19]: 21121
      0.00633 [    29]: 22210
      0.00614 [    21]: 21211
      0.00600 [     2]: 02212
      0.00534 [     0]: 01222
      0.00473 [    12]: 12211
      0.00392 [    20]: 21202
      0.00257 [     4]: 10222
ROOT  22:  E=   -1811.5232810810 Eh  1.465 eV  11817.9 cm**-1
      0.14572 [     4]: 10222
      0.13393 [    21]: 21211
      0.11493 [    12]: 12211
      0.11287 [     5]: 11122
      0.06803 [    26]: 22111
      0.05671 [     9]: 12112
      0.05033 [    14]: 20122
      0.03947 [     7]: 11221
      0.03592 [    18]: 21112
      0.03146 [    19]: 21121
      0.03138 [     0]: 01222
      0.02766 [    22]: 21220
      0.02408 [     1]: 02122
      0.01703 [     6]: 11212
      0.01579 [    20]: 21202
      0.01543 [    13]: 12220
      0.01384 [    24]: 22021
      0.01302 [    10]: 12121
      0.00943 [     8]: 12022
      0.00824 [    25]: 22102
      0.00660 [     3]: 02221
      0.00504 [    27]: 22120
      0.00497 [    11]: 12202
      0.00433 [     2]: 02212
      0.00414 [    29]: 22210
      0.00411 [    15]: 20212
      0.00314 [    16]: 20221
ROOT  23:  E=   -1811.5197868763 Eh  1.560 eV  12584.7 cm**-1
      0.14332 [    16]: 20221
      0.12615 [    26]: 22111
      0.12127 [     9]: 12112
      0.07841 [     0]: 01222
      0.07598 [    12]: 12211
      0.06898 [     5]: 11122
      0.04959 [    27]: 22120
      0.04847 [    25]: 22102
      0.03085 [    17]: 21022
      0.02981 [     2]: 02212
      0.02583 [     6]: 11212
      0.02320 [    18]: 21112
      0.02204 [    10]: 12121
      0.02157 [    11]: 12202
      0.02127 [    19]: 21121
      0.01943 [    13]: 12220
      0.01797 [    29]: 22210
      0.01448 [     1]: 02122
      0.01430 [     8]: 12022
      0.00977 [    14]: 20122
      0.00962 [    15]: 20212
      0.00838 [    28]: 22201
      0.00745 [     7]: 11221
      0.00513 [    21]: 21211
      0.00264 [    23]: 22012
ROOT  24:  E=   -1811.5174487673 Eh  1.624 eV  13097.9 cm**-1
      0.13409 [    17]: 21022
      0.09996 [    20]: 21202
      0.09070 [     0]: 01222
      0.06468 [    13]: 12220
      0.06215 [     9]: 12112
      0.05424 [    21]: 21211
      0.05170 [    24]: 22021
      0.05164 [     4]: 10222
      0.04610 [    18]: 21112
      0.04278 [    12]: 12211
      0.04223 [     8]: 12022
      0.04172 [    19]: 21121
      0.03490 [     3]: 02221
      0.03456 [     7]: 11221
      0.03126 [     1]: 02122
      0.02987 [     6]: 11212
      0.01943 [    27]: 22120
      0.01379 [    14]: 20122
      0.01319 [    22]: 21220
      0.01248 [    26]: 22111
      0.01110 [    11]: 12202
      0.00783 [    10]: 12121
      0.00401 [    16]: 20221
      0.00273 [    25]: 22102
ROOT  25:  E=   -1811.5151558059 Eh  1.686 eV  13601.2 cm**-1
      0.11982 [     7]: 11221
      0.11853 [    26]: 22111
      0.10574 [     6]: 11212
      0.09140 [    19]: 21121
      0.07188 [    12]: 12211
      0.06780 [    23]: 22012
      0.06386 [    14]: 20122
      0.05470 [    18]: 21112
      0.05302 [     2]: 02212
      0.05129 [     4]: 10222
      0.04749 [     1]: 02122
      0.04030 [    10]: 12121
      0.03596 [     8]: 12022
      0.02965 [    24]: 22021
      0.01218 [    29]: 22210
      0.01099 [     3]: 02221
      0.00777 [    16]: 20221
      0.00358 [    28]: 22201
      0.00321 [    17]: 21022
ROOT  26:  E=   -1811.5107733018 Eh  1.806 eV  14563.0 cm**-1
      0.15392 [    19]: 21121
      0.09689 [     0]: 01222
      0.09610 [     9]: 12112
      0.08791 [    10]: 12121
      0.07167 [    18]: 21112
      0.06718 [     8]: 12022
      0.06566 [     4]: 10222
      0.06498 [     5]: 11122
      0.05769 [    12]: 12211
      0.05676 [    17]: 21022
      0.02888 [    23]: 22012
      0.02293 [    21]: 21211
      0.01921 [    16]: 20221
      0.01769 [    22]: 21220
      0.01696 [     3]: 02221
      0.01472 [    11]: 12202
      0.01380 [    13]: 12220
      0.01036 [     2]: 02212
      0.00661 [    29]: 22210
      0.00653 [     7]: 11221
      0.00464 [    28]: 22201
      0.00375 [    26]: 22111
      0.00366 [     6]: 11212
      0.00346 [    27]: 22120
      0.00327 [    24]: 22021
ROOT  27:  E=   -1811.5107731921 Eh  1.806 eV  14563.0 cm**-1
      0.18658 [     5]: 11122
      0.13793 [     7]: 11221
      0.06928 [    26]: 22111
      0.06812 [     6]: 11212
      0.06100 [    24]: 22021
      0.05808 [     1]: 02122
      0.05452 [    14]: 20122
      0.04759 [    17]: 21022
      0.04456 [    23]: 22012
      0.04249 [     2]: 02212
      0.04148 [     9]: 12112
      0.03126 [    10]: 12121
      0.02757 [    16]: 20221
      0.01995 [    27]: 22120
      0.01919 [    21]: 21211
      0.01755 [    25]: 22102
      0.01745 [     3]: 02221
      0.01567 [    22]: 21220
      0.01177 [     0]: 01222
      0.00605 [    29]: 22210
      0.00530 [    15]: 20212
      0.00528 [    19]: 21121
      0.00377 [    28]: 22201
ROOT  28:  E=   -1811.4596115718 Eh  3.198 eV  25791.7 cm**-1
      0.24596 [    20]: 21202
      0.15406 [    13]: 12220
      0.08524 [    27]: 22120
      0.08517 [    18]: 21112
      0.06933 [     8]: 12022
      0.06121 [     3]: 02221
      0.05487 [    17]: 21022
      0.04636 [     1]: 02122
      0.04157 [    24]: 22021
      0.02721 [     6]: 11212
      0.02623 [     9]: 12112
      0.02303 [     0]: 01222
      0.01520 [    10]: 12121
      0.01313 [     4]: 10222
      0.01192 [     5]: 11122
      0.00772 [     7]: 11221
      0.00671 [    14]: 20122
      0.00669 [    21]: 21211
      0.00665 [    19]: 21121
      0.00389 [    22]: 21220
ROOT  29:  E=   -1811.4572424275 Eh  3.262 eV  26311.7 cm**-1
      0.18008 [    10]: 12121
      0.12231 [    21]: 21211
      0.11585 [    12]: 12211
      0.11130 [    18]: 21112
      0.10736 [     9]: 12112
      0.08122 [    19]: 21121
      0.07437 [     6]: 11212
      0.04690 [    26]: 22111
      0.03565 [    22]: 21220
      0.01911 [    25]: 22102
      0.01561 [     1]: 02122
      0.01545 [    11]: 12202
      0.01093 [     7]: 11221
      0.00943 [     3]: 02221
      0.00732 [     4]: 10222
      0.00683 [    27]: 22120
      0.00600 [     8]: 12022
      0.00560 [    13]: 12220
      0.00543 [    24]: 22021
      0.00449 [     5]: 11122
      0.00383 [    15]: 20212
      0.00334 [    20]: 21202
      0.00285 [     0]: 01222
      0.00256 [    23]: 22012
ROOT  30:  E=   -1811.4534926117 Eh  3.364 eV  27134.7 cm**-1
      0.12388 [    10]: 12121
      0.11059 [    14]: 20122
      0.09494 [     7]: 11221
      0.07393 [     1]: 02122
      0.05827 [    23]: 22012
      0.05482 [     2]: 02212
      0.05444 [    15]: 20212
      0.05065 [     8]: 12022
      0.04300 [    18]: 21112
      0.03946 [    16]: 20221
      0.03755 [     6]: 11212
      0.03443 [     5]: 11122
      0.02842 [    19]: 21121
      0.02778 [    28]: 22201
      0.02195 [    29]: 22210
      0.02182 [     4]: 10222
      0.02145 [    25]: 22102
      0.02062 [    11]: 12202
      0.01839 [    26]: 22111
      0.01838 [    13]: 12220
      0.01118 [    24]: 22021
      0.00850 [    21]: 21211
      0.00720 [    12]: 12211
      0.00491 [    27]: 22120
      0.00375 [     3]: 02221
      0.00309 [    22]: 21220
ROOT  31:  E=   -1811.4488088462 Eh  3.492 eV  28162.6 cm**-1
      0.15653 [     7]: 11221
      0.14988 [     5]: 11122
      0.09761 [    26]: 22111
      0.09244 [     6]: 11212
      0.08860 [    27]: 22120
      0.07280 [    18]: 21112
      0.06032 [    25]: 22102
      0.04960 [    19]: 21121
      0.03449 [    11]: 12202
      0.03070 [     1]: 02122
      0.02925 [    12]: 12211
      0.02657 [    15]: 20212
      0.02000 [    21]: 21211
      0.01794 [    13]: 12220
      0.01513 [    17]: 21022
      0.01281 [    16]: 20221
      0.00993 [    10]: 12121
      0.00855 [     4]: 10222
      0.00431 [     0]: 01222
      0.00360 [    29]: 22210
      0.00335 [     2]: 02212
      0.00331 [    28]: 22201
      0.00311 [    22]: 21220
      0.00298 [     8]: 12022
      0.00267 [    20]: 21202
ROOT  32:  E=   -1811.4480713187 Eh  3.512 eV  28324.5 cm**-1
      0.12970 [    10]: 12121
      0.12200 [    21]: 21211
      0.11409 [    12]: 12211
      0.10408 [     4]: 10222
      0.08229 [     5]: 11122
      0.06606 [    19]: 21121
      0.06151 [    14]: 20122
      0.05356 [    18]: 21112
      0.04984 [     6]: 11212
      0.03991 [     8]: 12022
      0.03690 [     0]: 01222
      0.02443 [    26]: 22111
      0.02110 [    13]: 12220
      0.01996 [    20]: 21202
      0.01782 [     2]: 02212
      0.01773 [    23]: 22012
      0.00861 [    15]: 20212
      0.00846 [     9]: 12112
      0.00586 [    16]: 20221
      0.00365 [    25]: 22102
      0.00274 [    17]: 21022
ROOT  33:  E=   -1811.4443236980 Eh  3.614 eV  29147.0 cm**-1
      0.20797 [    18]: 21112
      0.10837 [    10]: 12121
      0.08396 [    24]: 22021
      0.07236 [     3]: 02221
      0.06879 [     0]: 01222
      0.06220 [    19]: 21121
      0.04780 [     5]: 11122
      0.04663 [    21]: 21211
      0.04400 [    13]: 12220
      0.04317 [     4]: 10222
      0.03795 [     9]: 12112
      0.03339 [     2]: 02212
      0.03178 [     6]: 11212
      0.02691 [    20]: 21202
      0.02176 [    14]: 20122
      0.01561 [    12]: 12211
      0.01199 [    15]: 20212
      0.00970 [    26]: 22111
      0.00604 [    22]: 21220
      0.00492 [    25]: 22102
      0.00379 [    16]: 20221
      0.00339 [     7]: 11221
      0.00326 [    27]: 22120
ROOT  34:  E=   -1811.4443095004 Eh  3.614 eV  29150.1 cm**-1
      0.16575 [     6]: 11212
      0.14504 [    10]: 12121
      0.11433 [     7]: 11221
      0.08037 [    15]: 20212
      0.07093 [    23]: 22012
      0.06167 [     3]: 02221
      0.05509 [     5]: 11122
      0.05497 [    17]: 21022
      0.04253 [    24]: 22021
      0.03648 [    27]: 22120
      0.02639 [     9]: 12112
      0.02563 [    19]: 21121
      0.02135 [    18]: 21112
      0.01365 [    21]: 21211
      0.01080 [    25]: 22102
      0.01063 [    16]: 20221
      0.01028 [    11]: 12202
      0.00888 [    12]: 12211
      0.00868 [    20]: 21202
      0.00826 [     2]: 02212
      0.00667 [     0]: 01222
      0.00496 [    14]: 20122
      0.00438 [    29]: 22210
      0.00337 [    22]: 21220
      0.00312 [     4]: 10222
      0.00289 [    28]: 22201
ROOT  35:  E=   -1811.3577376660 Eh  5.970 eV  48150.4 cm**-1
      0.15759 [    15]: 20212
      0.06672 [    25]: 22102
      0.06282 [    27]: 22120
      0.06259 [    29]: 22210
      0.05491 [    13]: 12220
      0.05268 [    16]: 20221
      0.04931 [     3]: 02221
      0.04892 [     2]: 02212
      0.04709 [    23]: 22012
      0.04550 [     7]: 11221
      0.04203 [    11]: 12202
      0.03986 [    28]: 22201
      0.03856 [     1]: 02122
      0.03758 [     6]: 11212
      0.03461 [    24]: 22021
      0.02770 [    19]: 21121
      0.02765 [    14]: 20122
      0.02230 [    26]: 22111
      0.02116 [     8]: 12022
      0.01647 [    18]: 21112
      0.01634 [     4]: 10222
      0.01367 [    12]: 12211
      0.00935 [    10]: 12121
ROOT  36:  E=   -1811.3512404754 Eh  6.147 eV  49576.4 cm**-1
      0.19866 [     3]: 02221
      0.19747 [    15]: 20212
      0.17543 [    24]: 22021
      0.09894 [    23]: 22012
      0.05445 [     2]: 02212
      0.03943 [    28]: 22201
      0.03481 [    17]: 21022
      0.03443 [    29]: 22210
      0.03337 [     5]: 11122
      0.02807 [    16]: 20221
      0.02168 [     9]: 12112
      0.01754 [    14]: 20122
      0.01518 [     4]: 10222
      0.01005 [    13]: 12220
      0.00720 [     1]: 02122
      0.00636 [    20]: 21202
      0.00436 [     0]: 01222
      0.00412 [    10]: 12121
      0.00394 [     6]: 11212
      0.00271 [    11]: 12202
      0.00251 [    22]: 21220
ROOT  37:  E=   -1811.3486279039 Eh  6.218 eV  50149.8 cm**-1
      0.23662 [    20]: 21202
      0.12657 [    13]: 12220
      0.11201 [     0]: 01222
      0.08045 [    22]: 21220
      0.07849 [    17]: 21022
      0.07112 [    27]: 22120
      0.04400 [     4]: 10222
      0.03360 [    14]: 20122
      0.02949 [    10]: 12121
      0.02503 [    18]: 21112
      0.02112 [    11]: 12202
      0.01902 [     8]: 12022
      0.01883 [     9]: 12112
      0.01860 [     3]: 02221
      0.01231 [    21]: 21211
      0.01126 [    19]: 21121
      0.00907 [    25]: 22102
      0.00890 [     6]: 11212
      0.00807 [     2]: 02212
      0.00534 [     1]: 02122
      0.00497 [     5]: 11122
      0.00482 [    12]: 12211
      0.00447 [    28]: 22201
      0.00359 [    16]: 20221
      0.00350 [    24]: 22021
      0.00349 [     7]: 11221
      0.00256 [    26]: 22111
ROOT  38:  E=   -1811.3220391815 Eh  6.941 eV  55985.4 cm**-1
      0.18936 [     8]: 12022
      0.13155 [    17]: 21022
      0.12485 [    13]: 12220
      0.08653 [    20]: 21202
      0.07280 [     4]: 10222
      0.05153 [    10]: 12121
      0.05033 [     0]: 01222
      0.04832 [    18]: 21112
      0.03934 [    24]: 22021
      0.03481 [    11]: 12202
      0.02829 [    27]: 22120
      0.02282 [     9]: 12112
      0.02280 [     1]: 02122
      0.01744 [    22]: 21220
      0.01243 [     6]: 11212
      0.01141 [    19]: 21121
      0.01088 [     7]: 11221
      0.00821 [    14]: 20122
      0.00806 [    15]: 20212
      0.00784 [     5]: 11122
      0.00473 [    25]: 22102
      0.00380 [    26]: 22111
      0.00327 [    16]: 20221
ROOT  39:  E=   -1811.3218145758 Eh  6.947 eV  56034.6 cm**-1
      0.18273 [     1]: 02122
      0.13380 [    14]: 20122
      0.12181 [    15]: 20212
      0.12171 [     3]: 02221
      0.06583 [    27]: 22120
      0.06289 [     5]: 11122
      0.04608 [    25]: 22102
      0.03987 [    10]: 12121
      0.03508 [    24]: 22021
      0.03256 [    16]: 20221
      0.02365 [     8]: 12022
      0.01903 [     0]: 01222
      0.01698 [     2]: 02212
      0.01664 [     4]: 10222
      0.01360 [     6]: 11212
      0.01221 [    23]: 22012
      0.01015 [    28]: 22201
      0.00741 [     9]: 12112
      0.00677 [    19]: 21121
      0.00634 [    29]: 22210
      0.00582 [    11]: 12202
      0.00551 [    20]: 21202
      0.00529 [    12]: 12211
      0.00362 [    26]: 22111

                 <<<<<<<<<<<<<<<<<<INITIAL CI STATE CHECK>>>>>>>>>>>>>>>>>>

   E(CAS)= -1811.559544191 Eh DE=    0.000000e+00
   --- Energy gap subspaces: Ext-Act = 1.568   Act-Int = 0.018
   --- current l-shift: Up(Ext-Act) = 1.00   Dn(Act-Int) = 1.98
   N(occ)=  1.40000 1.40000 1.40000 1.40000 1.40000
   ||g|| =     3.326734e-05 Max(G)=    8.975978e-06 Rot=588,0
   --- Orbital Update [   SuperCI]
   SUPERCI-ITER   0: DE=    -0.000000000 <r|r>=      0.000000000
   <Psi(SX)|Psi(SX)>=      1.000000000 DE(SX)=-0.000000000
   Largest coefficient in the normalized |SX> wavefunction= 0.000001479
   --- Forming Natural Orbitals

MACRO-ITERATION   2: 
   ===>>> Convergence to 3.0e-02 achieved - switching to Step=DIIS
   --- Inactive Energy E0 = -1786.45518676 Eh
CI-ITERATION   0: 
 -1811.653973881   0.000000000000 (    0.00)
 -1811.653948113   0.000000000000
 -1811.645758285   0.000000000000
 -1811.640969719   0.000000000000
 -1811.640283167   0.000000000000
 -1811.633979005   0.000000000000
 -1811.633921223   0.000000000000
 -1811.577173573   0.000000000000
 -1811.554378246   0.000000000000
 -1811.546816429   0.000000000000
   CI-PROBLEM SOLVED
   DENSITIES MADE
CI-ITERATION   0: 
 -1811.577127275   0.000000000000 (    0.00)
 -1811.577111875   0.000000000000
 -1811.571208969   0.000000000000
 -1811.570008373   0.000000000000
 -1811.566807528   0.000000000000
 -1811.565922824   0.000000000000
 -1811.563829347   0.000000000000
 -1811.553364737   0.000000000000
 -1811.553278401   0.000000000000
 -1811.552846841   0.000000000000
 -1811.552262351   0.000000000000
 -1811.552254065   0.000000000000
 -1811.538986955   0.000000000000
 -1811.538075583   0.000000000000
 -1811.537897064   0.000000000000
 -1811.535594733   0.000000000000
 -1811.533927570   0.000000000000
 -1811.530734084   0.000000000000
 -1811.530613935   0.000000000000
 -1811.529881871   0.000000000000
 -1811.526454295   0.000000000000
 -1811.525998430   0.000000000000
 -1811.523281006   0.000000000000
 -1811.519786856   0.000000000000
 -1811.517448722   0.000000000000
 -1811.515155747   0.000000000000
 -1811.510773172   0.000000000000
 -1811.510773063   0.000000000000
 -1811.459611585   0.000000000000
 -1811.457242424   0.000000000000
 -1811.453492581   0.000000000000
 -1811.448808816   0.000000000000
 -1811.448071281   0.000000000000
 -1811.444323644   0.000000000000
 -1811.444309446   0.000000000000
 -1811.357737764   0.000000000000
 -1811.351240499   0.000000000000
 -1811.348627921   0.000000000000
 -1811.322039110   0.000000000000
 -1811.321814501   0.000000000000
   CI-PROBLEM SOLVED
   DENSITIES MADE
   E(CAS)= -1811.559544148 Eh DE=    4.291337e-08
   --- Energy gap subspaces: Ext-Act = 1.567   Act-Int = 0.016
   --- current l-shift: Up(Ext-Act) = 0.50   Dn(Act-Int) = 1.48
   N(occ)=  1.40000 1.40000 1.40000 1.40000 1.40000
   ||g|| =     1.754358e-05 Max(G)=    2.933708e-06 Rot=74,45
   --- Orbital Update [      DIIS]
   --- Forming Natural Orbitals

MACRO-ITERATION   3: 
[...]
 3 106   46177.3    216.6   0.00000   0.00094   0.00000   0.00000000005148   0.14949   0.85041   0.00010
 3 107   46177.3    216.6   0.00000   0.00000   0.00000   0.00000000000033   0.93511   0.04940   0.01549
 3 108   46504.2    215.0   0.00000   0.00000   0.00000   0.00000000005618   0.99967   0.00000   0.00033
 3 109   46504.2    215.0   0.00000   0.00000   0.00000   0.00000000000003   0.20648   0.70074   0.09278
 3 110   65346.8    153.0   0.00000   0.00000   0.00000   0.00000000000088   0.97416   0.02070   0.00514
 3 111   65346.8    153.0   0.00000   0.00000   0.00000   0.00000000000363   0.98144   0.01746   0.00110
 3 112   66701.2    149.9   0.00000   0.00000   0.00000   0.00000000000085   0.93139   0.05710   0.01151
 3 113   66701.2    149.9   0.00000   0.00000   0.00000   0.00000000000083   0.91085   0.07940   0.00975
 3 114   67421.7    148.3   0.00000   0.00000   0.00000   0.00000000000020   0.60046   0.16545   0.23409
 3 115   67421.7    148.3   0.00000   0.00000   0.00000   0.00000000000635   0.98742   0.00270   0.00988
 3 116   72941.4    137.1   0.00000   0.00000   0.00000   0.00000000006625   0.99788   0.00004   0.00208
 3 117   72941.4    137.1   0.00000   0.00000   0.00000   0.00000000000041   0.75114   0.02240   0.22646
 3 118   73465.9    136.1   0.00000   0.00000   0.00000   0.00000000000056   0.86763   0.12178   0.01059
 3 119   73465.9    136.1   0.00000   0.00004   0.00000   0.00000000000890   0.81309   0.18564   0.00127

Done

                 =============================
                 AB INITIO LIGAND FIELD THEORY
                       d7 configuration
                          2 CI blocks
                         MOs 47 to 51
                 =============================

Metal/Atom center is atom 0
orbital phases =   1.0   1.0   1.0   1.0   1.0 
Metal/Atom d-orbital parts of active orbitals
Shell 15
             47        48        49        50        51
dz2     :  0.608298 -0.000000 -0.000001 -0.001654  0.000146
dxz     :  0.000021  0.616615 -0.000069  0.000001 -0.000012
dyz     : -0.000019 -0.000073  0.615309  0.000002  0.000002
dx2y2   :  0.024291 -0.000031  0.000033  0.596630 -0.000027
dxy     : -0.002121  0.000013 -0.000004  0.003586  0.616650
Shell 16
             47        48        49        50        51
dz2     :  0.407522 -0.000003  0.000002 -0.000152 -0.000013
dxz     :  0.000012  0.409080  0.000147 -0.000000 -0.000015
dyz     : -0.000013  0.000146  0.412638 -0.000003 -0.000000
dx2y2   :  0.017025 -0.000021  0.000014  0.398077 -0.000153
dxy     : -0.001484  0.000001 -0.000003  0.002213  0.409713
Shell 17
             47        48        49        50        51
dz2     :  0.212593  0.000008  0.000002  0.004342 -0.000147
dxz     :  0.000014  0.224831 -0.000300  0.000002  0.000116
dyz     :  0.000006 -0.000339  0.217701 -0.000007 -0.000005
dx2y2   :  0.014183 -0.000010  0.000022  0.201995  0.000137
dxy     : -0.001157  0.000128 -0.000009  0.001635  0.214154
Shell 20
             47        48        49        50        51
dz2     : -0.002778  0.000025  0.000012  0.026069 -0.002838
dxz     :  0.000018  0.009823  0.000199 -0.000029  0.000044
dyz     :  0.000023  0.000217  0.011113 -0.000061 -0.000005
dx2y2   :  0.026200 -0.000043 -0.000037 -0.039569  0.004313
dxy     : -0.002129  0.000057  0.000001  0.003731  0.005422

Adjusting phases of one-electron integrals               ... done
Adjusting phases of two-electron integrals               ... done


-----------------------------------------------------------------
Computing F0s from 2-electron integrals                  ... done 
-----------------------------------------------------------------
F0   =  0.887570992 a.u. =    24.152 eV =  194799.3 cm**-1
-----------------------------------------------------------------

Preparing for fit                                        ... done
Making fit matrices                                      ... done
Calculating ab initio Hamiltonian matrices               ... 
Calculating fit matrices                                 ... done
Fitting                                                  ... done

------------------------------
AILFT MATRIX ELEMENTS (CASSCF)
--------------------------------

Ligand field one-electron matrix VLFT (a.u.) : 
Orbital          dz2        dxz        dyz        dx2-y2     dxy
  dz2         -6.189189  -0.000004  -0.000012  -0.014941   0.001286 
  dxz         -0.000004  -6.186913  -0.000422   0.000009  -0.000098 
  dyz         -0.000012  -0.000422  -6.196810   0.000022   0.000011 
  dx2-y2      -0.014941   0.000009   0.000022  -6.167741  -0.000812 
  dxy          0.001286  -0.000098   0.000011  -0.000812  -6.178146 

-------------------------------------------------
Slater-Condon Parameters (electronic repulsion) : 
-------------------------------------------------
F0dd(from 2el Ints)     =  0.887570992 a.u. =    24.152 eV =  194799.3 cm**-1 (fixed)
F2dd                    =  0.401229283 a.u. =    10.918 eV =   88059.6 cm**-1
F4dd                    =  0.255019318 a.u. =     6.939 eV =   55970.3 cm**-1
-------------------
Racah Parameters : 
-------------------
A(F0dd from 2el Ints)   =  0.859235512 a.u. =    23.381 eV =  188580.4 cm**-1
B                       =  0.005296977 a.u. =     0.144 eV =    1162.6 cm**-1
C                       =  0.020239628 a.u. =     0.551 eV =    4442.1 cm**-1
C/B                     =  3.821
-------------------------------------------------------------------------------

-----------------------------------------
The ligand field one electron eigenfunctions:
-----------------------------------------
Orbital    Energy (eV)  Energy(cm-1)      dz2        dxz        dyz        dx2-y2     dxy
    1          0.000        0.0        -0.889394  -0.000451  -0.021840  -0.454745   0.041319 
    2          0.002       13.3        -0.019121   0.042480   0.998858  -0.010571   0.000508 
    3          0.272     2193.1        -0.000745  -0.999034   0.042473  -0.000612  -0.011205 
    4          0.508     4100.0         0.003893  -0.011191   0.000921   0.082895   0.996487 
    5          1.004     8100.7        -0.456723   0.000633   0.000651   0.886692  -0.071971 
Ligand field orbitals were stored in rho.casscf.lft.gbw

Calculating ligand field Hamiltonian matrices          ... done
Diagonalizing and fitting the ligand field Hamiltonian ... done
Calculating statistical parameters                     ... done

Reference energy AI-LFT =    -25.199621727 au
Reference energy AI     =    -25.198776833 au

------------------------------------------------
COMPARISON OF AB INITIO AND LIGAND FIELD RESULTS
------------------------------------------------

Block   1
---------
   AI-Root   0: E(AI)=    0.000 eV -> LF-Root   0:     0.001 eV    S= 1.000 Delta=   -0.001 eV
   AI-Root   1: E(AI)=    0.001 eV -> LF-Root   1:     0.000 eV    S= 0.999 Delta=    0.001 eV
   AI-Root   2: E(AI)=    0.224 eV -> LF-Root   2:     0.203 eV    S= 1.000 Delta=    0.021 eV
   AI-Root   3: E(AI)=    0.354 eV -> LF-Root   3:     0.355 eV    S= 0.998 Delta=   -0.001 eV
   AI-Root   4: E(AI)=    0.373 eV -> LF-Root   4:     0.350 eV    S= 0.997 Delta=    0.022 eV
   AI-Root   5: E(AI)=    0.544 eV -> LF-Root   5:     0.639 eV    S= 0.976 Delta=   -0.095 eV
   AI-Root   6: E(AI)=    0.546 eV -> LF-Root   6:     0.639 eV    S= 0.976 Delta=   -0.093 eV
   AI-Root   7: E(AI)=    2.090 eV -> LF-Root   7:     2.012 eV    S= 0.999 Delta=    0.078 eV
   AI-Root   8: E(AI)=    2.710 eV -> LF-Root   8:     2.768 eV    S= 1.000 Delta=   -0.058 eV
   AI-Root   9: E(AI)=    2.916 eV -> LF-Root   9:     3.010 eV    S= 0.999 Delta=   -0.094 eV
   RMS error for this block =     0.061 eV =     490.8 cm**-1 

Block   2
---------
   AI-Root   0: E(AI)=    2.091 eV -> LF-Root   0:     2.126 eV    S= 1.000 Delta=   -0.035 eV
   AI-Root   1: E(AI)=    2.092 eV -> LF-Root   1:     2.124 eV    S= 0.999 Delta=   -0.033 eV
   AI-Root   2: E(AI)=    2.252 eV -> LF-Root   2:     2.294 eV    S= 0.971 Delta=   -0.042 eV
   AI-Root   3: E(AI)=    2.285 eV -> LF-Root   3:     2.348 eV    S= 0.949 Delta=   -0.063 eV
   AI-Root   4: E(AI)=    2.372 eV -> LF-Root   4:     2.457 eV    S= 0.971 Delta=   -0.085 eV
   AI-Root   5: E(AI)=    2.396 eV -> LF-Root   5:     2.468 eV    S= 0.951 Delta=   -0.072 eV
   AI-Root   6: E(AI)=    2.453 eV -> LF-Root   6:     2.452 eV    S= 0.997 Delta=    0.001 eV
   AI-Root   7: E(AI)=    2.738 eV -> LF-Root   7:     2.777 eV    S= 0.996 Delta=   -0.039 eV
   AI-Root   8: E(AI)=    2.740 eV -> LF-Root   8:     2.790 eV    S= 0.995 Delta=   -0.050 eV
   AI-Root   9: E(AI)=    2.752 eV -> LF-Root   9:     2.842 eV    S= 0.971 Delta=   -0.090 eV
   AI-Root  10: E(AI)=    2.768 eV -> LF-Root  10:     2.754 eV    S= 0.971 Delta=    0.013 eV
   AI-Root  11: E(AI)=    2.768 eV -> LF-Root  11:     2.755 eV    S= 0.995 Delta=    0.013 eV
   AI-Root  12: E(AI)=    3.129 eV -> LF-Root  12:     3.117 eV    S= 0.993 Delta=    0.012 eV
   AI-Root  13: E(AI)=    3.154 eV -> LF-Root  13:     3.136 eV    S= 0.995 Delta=    0.018 eV
   AI-Root  14: E(AI)=    3.159 eV -> LF-Root  14:     3.145 eV    S= 0.980 Delta=    0.013 eV
   AI-Root  15: E(AI)=    3.221 eV -> LF-Root  15:     3.185 eV    S= 0.996 Delta=    0.036 eV
   AI-Root  16: E(AI)=    3.267 eV -> LF-Root  16:     3.242 eV    S= 0.980 Delta=    0.025 eV
   AI-Root  17: E(AI)=    3.354 eV -> LF-Root  17:     3.357 eV    S= 0.987 Delta=   -0.003 eV
   AI-Root  18: E(AI)=    3.357 eV -> LF-Root  18:     3.400 eV    S= 0.989 Delta=   -0.043 eV
   AI-Root  19: E(AI)=    3.377 eV -> LF-Root  19:     3.424 eV    S= 0.988 Delta=   -0.047 eV
   AI-Root  20: E(AI)=    3.470 eV -> LF-Root  20:     3.476 eV    S= 0.997 Delta=   -0.006 eV
   AI-Root  21: E(AI)=    3.482 eV -> LF-Root  21:     3.491 eV    S= 0.991 Delta=   -0.009 eV
   AI-Root  22: E(AI)=    3.556 eV -> LF-Root  22:     3.562 eV    S= 0.990 Delta=   -0.006 eV
   AI-Root  23: E(AI)=    3.651 eV -> LF-Root  23:     3.692 eV    S= 0.990 Delta=   -0.040 eV
   AI-Root  24: E(AI)=    3.715 eV -> LF-Root  24:     3.775 eV    S= 0.999 Delta=   -0.060 eV
   AI-Root  25: E(AI)=    3.777 eV -> LF-Root  25:     3.741 eV    S= 0.999 Delta=    0.037 eV
   AI-Root  26: E(AI)=    3.897 eV -> LF-Root  26:     3.970 eV    S= 0.999 Delta=   -0.073 eV
   AI-Root  27: E(AI)=    3.897 eV -> LF-Root  27:     3.970 eV    S= 0.999 Delta=   -0.073 eV
   AI-Root  28: E(AI)=    5.289 eV -> LF-Root  28:     5.326 eV    S= 1.000 Delta=   -0.037 eV
   AI-Root  29: E(AI)=    5.353 eV -> LF-Root  29:     5.394 eV    S= 0.999 Delta=   -0.041 eV
   AI-Root  30: E(AI)=    5.455 eV -> LF-Root  30:     5.501 eV    S= 0.999 Delta=   -0.046 eV
   AI-Root  31: E(AI)=    5.583 eV -> LF-Root  31:     5.609 eV    S= 1.000 Delta=   -0.026 eV
   AI-Root  32: E(AI)=    5.603 eV -> LF-Root  32:     5.631 eV    S= 1.000 Delta=   -0.028 eV
   AI-Root  33: E(AI)=    5.705 eV -> LF-Root  33:     5.744 eV    S= 0.999 Delta=   -0.040 eV
   AI-Root  34: E(AI)=    5.705 eV -> LF-Root  34:     5.745 eV    S= 0.999 Delta=   -0.040 eV
   AI-Root  35: E(AI)=    8.061 eV -> LF-Root  35:     7.986 eV    S= 1.000 Delta=    0.075 eV
   AI-Root  36: E(AI)=    8.238 eV -> LF-Root  36:     8.253 eV    S= 0.999 Delta=   -0.015 eV
   AI-Root  37: E(AI)=    8.309 eV -> LF-Root  37:     8.382 eV    S= 0.999 Delta=   -0.073 eV
   AI-Root  38: E(AI)=    9.032 eV -> LF-Root  38:     9.010 eV    S= 1.000 Delta=    0.022 eV
   AI-Root  39: E(AI)=    9.039 eV -> LF-Root  39:     9.018 eV    S= 1.000 Delta=    0.021 eV
   RMS error for this block =     0.044 eV =     358.1 cm**-1 

Total RMS error g=     0.049 eV =     392.2 cm**-1
Note: Dropped RMS error for the reference energy.

Confidence intervals (95%) computed from the square root of the
diagonal elements of the covariance matrix:
H(dz2   ,dz2   )=  0.000287685 a.u. =     0.008 eV =      63.1 cm**-1
H(dxz   ,dz2   )=  0.000243385 a.u. =     0.007 eV =      53.4 cm**-1
H(dxz   ,dxz   )=  0.000287685 a.u. =     0.008 eV =      63.1 cm**-1
H(dyz   ,dz2   )=  0.000243385 a.u. =     0.007 eV =      53.4 cm**-1
H(dyz   ,dxz   )=  0.000243385 a.u. =     0.007 eV =      53.4 cm**-1
H(dyz   ,dyz   )=  0.000287685 a.u. =     0.008 eV =      63.1 cm**-1
H(dx2-y2,dz2   )=  0.000243385 a.u. =     0.007 eV =      53.4 cm**-1
H(dx2-y2,dxz   )=  0.000243385 a.u. =     0.007 eV =      53.4 cm**-1
H(dx2-y2,dyz   )=  0.000243385 a.u. =     0.007 eV =      53.4 cm**-1
H(dx2-y2,dx2-y2)=  0.000287685 a.u. =     0.008 eV =      63.1 cm**-1
H(dxy   ,dz2   )=  0.000243385 a.u. =     0.007 eV =      53.4 cm**-1
H(dxy   ,dxz   )=  0.000243385 a.u. =     0.007 eV =      53.4 cm**-1
H(dxy   ,dyz   )=  0.000243385 a.u. =     0.007 eV =      53.4 cm**-1
H(dxy   ,dx2-y2)=  0.000243385 a.u. =     0.007 eV =      53.4 cm**-1
H(dxy   ,dxy   )=  0.000287685 a.u. =     0.008 eV =      63.1 cm**-1
F2dd            =  0.001033129 a.u. =     0.028 eV =     226.7 cm**-1
F4dd            =  0.001498404 a.u. =     0.041 eV =     328.9 cm**-1
Pearson's correlation coefficient =    1.000 (should be close to 1)

----------------------------------------------
SPIN ORBIT COUPLING (based on CASSCF orbitals)
----------------------------------------------

AI-SOC-X integrals (cm-1)
                  0          1          2          3          4    
      0       0.000000   1.703575 904.587495   0.017299   0.020434
      1      -1.703575   0.000000  -0.029201   3.141605 518.221709
      2     -904.587495   0.029201  -0.000000 -498.214658  -0.251354
      3      -0.017299  -3.141605 498.214658  -0.000000   0.001281
      4      -0.020434 -518.221709   0.251354  -0.001281   0.000000
AI-SOC-Y integrals (cm-1)
                  0          1          2          3          4    
      0      -0.000000 -865.016048  -1.711511  -0.017451   0.029286
      1     865.016048  -0.000000  -0.017455 -502.162918   0.122735
      2       1.711511   0.017455  -0.000000  -3.071138 -517.788773
      3       0.017451 502.162918   3.071138  -0.000000  -0.009144
      4      -0.029286  -0.122735 517.788773   0.009144   0.000000
AI-SOC-Z integrals (cm-1)
                  0          1          2          3          4    
      0       0.000000  -0.016814  -0.018715  -3.826122 -42.297776
      1       0.016814   0.000000 -517.933345   0.023423   0.051951
      2       0.018715 517.933345  -0.000000  -0.007357  -0.064728
      3       3.826122  -0.023423   0.007357  -0.000000 -1001.634565
      4      42.297776  -0.051951   0.064728 1001.634565  -0.000000

Fit to the SOC matrix elements
a = 15.000000
b =     0.945 eV =    7622.6 cm**-1
SOC constant zeta =     0.063 eV =     508.2 cm**-1


LF-SOC-X integrals (cm-1)
                  0          1          2          3          4    
      0       0.000000  -0.000000 880.185933  -0.000000  -0.000000
      1       0.000000   0.000000  -0.000000  -0.000000 508.175585
      2     -880.185933   0.000000   0.000000 -508.175585  -0.000000
      3       0.000000   0.000000 508.175585   0.000000  -0.000000
      4       0.000000 -508.175585   0.000000   0.000000   0.000000
LF-SOC-Y integrals (cm-1)
                  0          1          2          3          4    
      0       0.000000 -880.185933  -0.000000  -0.000000  -0.000000
      1     880.185933   0.000000  -0.000000 -508.175585  -0.000000
      2       0.000000   0.000000   0.000000  -0.000000 -508.175585
      3       0.000000 508.175585   0.000000   0.000000  -0.000000
      4       0.000000   0.000000 508.175585   0.000000   0.000000
LF-SOC-Z integrals (cm-1)
                  0          1          2          3          4    
      0       0.000000  -0.000000  -0.000000  -0.000000  -0.000000
      1       0.000000   0.000000 -508.175585  -0.000000  -0.000000
      2       0.000000 508.175585   0.000000  -0.000000  -0.000000
      3       0.000000   0.000000   0.000000   0.000000 -1016.351171
      4       0.000000   0.000000   0.000000 1016.351171   0.000000

RMS error of nonzero matrix elements =   14.4 cm**-1


-----SOC-CONSTANTS-----
---All Values in cm-1---
ZETA_D = 508.18 
------------------------




---AILFT COMPLETED SUCCESFULLY!---

--------------
CASSCF TIMINGS
--------------

Total time                       ...      223.9 sec
Sum of individual times          ...      223.0 sec ( 99.6%)

Calculation of AO operators
   F(Core) operator              ...       69.2 sec ( 30.9%)
   G(Act) operator               ...       65.5 sec ( 29.3%)
   J(AO) operators               ...        0.0 sec (  0.0%)
Calculation of MO transformed quantities
   J(MO) operators               ...       11.1 sec (  5.0%)
   (pq|rs) integrals             ...        0.0 sec (  0.0%)
   AO->MO one electron integrals ...        0.4 sec (  0.2%)
Configuration interaction steps
   CI-setup phase                ...        0.0 sec (  0.0%)
   CI-solution phase             ...        0.5 sec (  0.2%)
   Generation of densities       ...        0.0 sec (  0.0%)
Orbital improvement steps
   Orbital gradient              ...        0.2 sec (  0.1%)
   O(1) converger                ...        1.0 sec (  0.4%)
Properties                       ...       48.0 sec ( 21.4%)
   SOC integral calculation      ...       27.0 sec ( 12.0%)
   SSC RMEs (incl. integrals)    ...        0.0 sec (  0.0%)
   SOC RMEs                      ...        0.1 sec (  0.0%)

Maximum memory used throughout the entire CASSCF-calculation: 648.3 MB

-------------------------   --------------------
FINAL SINGLE POINT ENERGY     -1811.559544143060
-------------------------   --------------------


                            ***************************************
                            *     ORCA property calculations      *
                            ***************************************

                                    ---------------------
                                    Active property flags
                                    ---------------------
   (+) Dipole Moment


------------------------------------------------------------------------------
                       ORCA ELECTRIC PROPERTIES CALCULATION
------------------------------------------------------------------------------

Dipole Moment Calculation                       ... on
Quadrupole Moment Calculation                   ... off
Polarizability Calculation                      ... off
GBWName                                         ... rho.gbw
Electron density                                ... rho.scfp
The origin for moment calculation is the CENTER OF MASS  = ( 0.000013, -0.000806 -0.105280)

-------------
DIPOLE MOMENT
-------------
                                X             Y             Z
Electronic contribution:      0.00005      -0.03947      -3.88271
Nuclear contribution   :     -0.00018       0.02782       2.91561
                        -----------------------------------------
Total Dipole Moment    :     -0.00013      -0.01165      -0.96710
                        -----------------------------------------
Magnitude (a.u.)       :      0.96717
Magnitude (Debye)      :      2.45835



--------------------
Rotational spectrum 
--------------------
 
Rotational constants in cm-1:     0.123569     0.011278     0.010470 
Rotational constants in MHz :  3704.520353   338.095802   313.888440 

 Dipole components along the rotational axes: 
x,y,z [a.u.] :     0.000061     0.967169    -0.000675 
x,y,z [Debye]:     0.000155     2.458347    -0.001717 

 

Timings for individual modules:

Sum of individual times         ...      241.612 sec (=   4.027 min)
GTO integral calculation        ...        4.613 sec (=   0.077 min)   1.9 %
Relativistic integrals          ...        2.108 sec (=   0.035 min)   0.9 %
SCF iterations                  ...        3.507 sec (=   0.058 min)   1.5 %
CASSCF iterations               ...      231.384 sec (=   3.856 min)  95.8 %
                             ****ORCA TERMINATED NORMALLY****
TOTAL RUN TIME: 0 days 0 hours 4 minutes 6 seconds 255 msec
