
                                 *****************
                                 * O   R   C   A *
                                 *****************

                                            #,                                       
                                            ###                                      
                                            ####                                     
                                            #####                                    
                                            ######                                   
                                           ########,                                 
                                     ,,################,,,,,                         
                               ,,#################################,,                 
                          ,,##########################################,,             
                       ,#########################################, ''#####,          
                    ,#############################################,,   '####,        
                  ,##################################################,,,,####,       
                ,###########''''           ''''###############################       
              ,#####''   ,,,,##########,,,,          '''####'''          '####       
            ,##' ,,,,###########################,,,                        '##       
           ' ,,###''''                  '''############,,,                           
         ,,##''                                '''############,,,,        ,,,,,,###''
      ,#''                                            '''#######################'''  
     '                                                          ''''####''''         
             ,#######,   #######,   ,#######,      ##                                
            ,#'     '#,  ##    ##  ,#'     '#,    #''#        ######   ,####,        
            ##       ##  ##   ,#'  ##            #'  '#       #        #'  '#        
            ##       ##  #######   ##           ,######,      #####,   #    #        
            '#,     ,#'  ##    ##  '#,     ,#' ,#      #,         ##   #,  ,#        
             '#######'   ##     ##  '#######'  #'      '#     #####' # '####'        



                  #######################################################
                  #                        -***-                        #
                  #          Department of theory and spectroscopy      #
                  #    Directorship and core code : Frank Neese         #
                  #        Max Planck Institute fuer Kohlenforschung    #
                  #                Kaiser Wilhelm Platz 1               #
                  #                 D-45470 Muelheim/Ruhr               #
                  #                      Germany                        #
                  #                                                     #
                  #                  All rights reserved                #
                  #                        -***-                        #
                  #######################################################


                         Program Version 5.0.4 -  RELEASE  -


 With contributions from (in alphabetic order):
   Daniel Aravena         : Magnetic Suceptibility
   Michael Atanasov       : Ab Initio Ligand Field Theory (pilot matlab implementation)
   Alexander A. Auer      : GIAO ZORA, VPT2 properties, NMR spectrum
   Ute Becker             : Parallelization
   Giovanni Bistoni       : ED, misc. LED, open-shell LED, HFLD
   Martin Brehm           : Molecular dynamics
   Dmytro Bykov           : SCF Hessian
   Vijay G. Chilkuri      : MRCI spin determinant printing, contributions to CSF-ICE
   Dipayan Datta          : RHF DLPNO-CCSD density
   Achintya Kumar Dutta   : EOM-CC, STEOM-CC
   Dmitry Ganyushin       : Spin-Orbit,Spin-Spin,Magnetic field MRCI
   Miquel Garcia          : C-PCM and meta-GGA Hessian, CC/C-PCM, Gaussian charge scheme
   Yang Guo               : DLPNO-NEVPT2, F12-NEVPT2, CIM, IAO-localization
   Andreas Hansen         : Spin unrestricted coupled pair/coupled cluster methods
   Benjamin Helmich-Paris : MC-RPA, TRAH-SCF, COSX integrals
   Lee Huntington         : MR-EOM, pCC
   Robert Izsak           : Overlap fitted RIJCOSX, COSX-SCS-MP3, EOM
   Marcus Kettner         : VPT2
   Christian Kollmar      : KDIIS, OOCD, Brueckner-CCSD(T), CCSD density, CASPT2, CASPT2-K
   Simone Kossmann        : Meta GGA functionals, TD-DFT gradient, OOMP2, MP2 Hessian
   Martin Krupicka        : Initial AUTO-CI
   Lucas Lang             : DCDCAS
   Marvin Lechner         : AUTO-CI (C++ implementation), FIC-MRCC
   Dagmar Lenk            : GEPOL surface, SMD
   Dimitrios Liakos       : Extrapolation schemes; Compound Job, initial MDCI parallelization
   Dimitrios Manganas     : Further ROCIS development; embedding schemes
   Dimitrios Pantazis     : SARC Basis sets
   Anastasios Papadopoulos: AUTO-CI, single reference methods and gradients
   Taras Petrenko         : DFT Hessian,TD-DFT gradient, ASA, ECA, R-Raman, ABS, FL, XAS/XES, NRVS
   Peter Pinski           : DLPNO-MP2, DLPNO-MP2 Gradient
   Christoph Reimann      : Effective Core Potentials
   Marius Retegan         : Local ZFS, SOC
   Christoph Riplinger    : Optimizer, TS searches, QM/MM, DLPNO-CCSD(T), (RO)-DLPNO pert. Triples
   Tobias Risthaus        : Range-separated hybrids, TD-DFT gradient, RPA, STAB
   Michael Roemelt        : Original ROCIS implementation
   Masaaki Saitow         : Open-shell DLPNO-CCSD energy and density
   Barbara Sandhoefer     : DKH picture change effects
   Avijit Sen             : IP-ROCIS
   Kantharuban Sivalingam : CASSCF convergence, NEVPT2, FIC-MRCI
   Bernardo de Souza      : ESD, SOC TD-DFT
   Georgi Stoychev        : AutoAux, RI-MP2 NMR, DLPNO-MP2 response
   Willem Van den Heuvel  : Paramagnetic NMR
   Boris Wezisla          : Elementary symmetry handling
   Frank Wennmohs         : Technical directorship


 We gratefully acknowledge several colleagues who have allowed us to
 interface, adapt or use parts of their codes:
   Stefan Grimme, W. Hujo, H. Kruse, P. Pracht,  : VdW corrections, initial TS optimization,
                  C. Bannwarth, S. Ehlert          DFT functionals, gCP, sTDA/sTD-DF
   Ed Valeev, F. Pavosevic, A. Kumar             : LibInt (2-el integral package), F12 methods
   Garnet Chan, S. Sharma, J. Yang, R. Olivares  : DMRG
   Ulf Ekstrom                                   : XCFun DFT Library
   Mihaly Kallay                                 : mrcc  (arbitrary order and MRCC methods)
   Jiri Pittner, Ondrej Demel                    : Mk-CCSD
   Frank Weinhold                                : gennbo (NPA and NBO analysis)
   Christopher J. Cramer and Donald G. Truhlar   : smd solvation model
   Lars Goerigk                                  : TD-DFT with DH, B97 family of functionals
   V. Asgeirsson, H. Jonsson                     : NEB implementation
   FAccTs GmbH                                   : IRC, NEB, NEB-TS, DLPNO-Multilevel, CI-OPT
                                                   MM, QMMM, 2- and 3-layer-ONIOM, Crystal-QMMM,
                                                   LR-CPCM, SF, NACMEs, symmetry and pop. for TD-DFT,
                                                   nearIR, NL-DFT gradient (VV10), updates on ESD,
                                                   ML-optimized integration grids
   S Lehtola, MJT Oliveira, MAL Marques          : LibXC Library
   Liviu Ungur et al                             : ANISO software


 Your calculation uses the libint2 library for the computation of 2-el integrals
 For citations please refer to: http://libint.valeyev.net

 Your ORCA version has been built with support for libXC version: 5.1.0
 For citations please refer to: https://tddft.org/programs/libxc/

 This ORCA versions uses:
   CBLAS   interface :  Fast vector & matrix operations
   LAPACKE interface :  Fast linear algebra routines
   SCALAPACK package :  Parallel linear algebra routines
   Shared memory     :  Shared parallel matrices
   BLAS/LAPACK       :  OpenBLAS 0.3.15  USE64BITINT DYNAMIC_ARCH NO_AFFINITY Zen SINGLE_THREADED
        Core in use  :  Zen
   Copyright (c) 2011-2014, The OpenBLAS Project




***************************************
The coordinates will be read from file: geo.xyz
***************************************


================================================================================

----- Orbital basis set information -----
Your calculation utilizes the basis: DKH-def2-TZVPP
   Exponents from def2-TZVPP [F. Weigend and R. Ahlrichs, Phys. Chem. Chem. Phys. 7, 3297 (2005)],
   recontracted for DKH2 by D. A. Pantazis.

----- AuxJ basis set information -----
Your calculation utilizes the AutoAux generation procedure.
  G. L. Stoychev, A. A. Auer, F. Neese, J. Chem. Theory Comput. 13, 554 (2017)

----- AuxC basis set information -----
Your calculation utilizes the AutoAux generation procedure.
  G. L. Stoychev, A. A. Auer, F. Neese, J. Chem. Theory Comput. 13, 554 (2017)

----- AuxJK basis set information -----
Your calculation utilizes the AutoAux generation procedure.
  G. L. Stoychev, A. A. Auer, F. Neese, J. Chem. Theory Comput. 13, 554 (2017)

================================================================================
                                        WARNINGS
                       Please study these warnings very carefully!
================================================================================


INFO   : the flag for use of the SHARK integral package has been found!

================================================================================
                                       INPUT FILE
================================================================================
NAME = rho.inp
|  1> !CASSCF  DKH DKH-def2-TZVPP  RIJCOSX NoSFitting VeryTightSCF autoaux moread SlowConv
|  2> %moinp "orb.gbw"
|  3> %pal
|  4> nprocs 10
|  5> end
|  6> %maxcore 4000
|  7> # swap
|  8> #%scf
|  9> # Rotate
| 10> #  { 43, 30 }
| 11> # end
| 12> #end
| 13> #
| 14> %rel
| 15>  picturechange 2
| 16> end
| 17> %casscf
| 18>  nel  7
| 19>  norb 5
| 20>  mult 4,2
| 21>  nroots 10,40
| 22>  maxiter 100
| 23>  ActOrbs dOrbs
| 24>  rel
| 25>   printlevel 3
| 26>   dosoc true
| 27>   gtensor true
| 28>   quad true
| 29>  end
| 30> end
| 31> * xyzfile 0 4 geo.xyz *
| 32> 
| 33>                          ****END OF INPUT****
================================================================================

                       ****************************
                       * Single Point Calculation *
                       ****************************

---------------------------------
CARTESIAN COORDINATES (ANGSTROEM)
---------------------------------
  Co    -0.002202   -0.024425   -1.268292
  S      2.168189    0.016349   -1.298709
  C      2.354083    0.053105    0.374715
  N      2.505225    0.079260    1.538611
  S     -2.172334   -0.068247   -1.286222
  C     -2.352502   -0.038181    0.387885
  N     -2.500459   -0.017855    1.552303

----------------------------
CARTESIAN COORDINATES (A.U.)
----------------------------
  NO LB      ZA    FRAG     MASS         X           Y           Z
   0 Co   27.0000    0    58.930   -0.004161   -0.046157   -2.396724
   1 S    16.0000    0    32.060    4.097284    0.030895   -2.454204
   2 C     6.0000    0    12.011    4.448572    0.100354    0.708109
   3 N     7.0000    0    14.007    4.734188    0.149779    2.907554
   4 S    16.0000    0    32.060   -4.105117   -0.128969   -2.430606
   5 C     6.0000    0    12.011   -4.445584   -0.072151    0.732997
   6 N     7.0000    0    14.007   -4.725183   -0.033741    2.933427

--------------------------------
INTERNAL COORDINATES (ANGSTROEM)
--------------------------------
 Co     0   0   0     0.000000000000     0.00000000     0.00000000
 S      1   0   0     2.170987276134     0.00000000     0.00000000
 C      2   1   0     1.684118647389    95.55713157     0.00000000
 N      3   2   1     1.173959684558   178.93975998   180.45877980
 S      1   2   3     2.170648921850   178.72141279   182.47599175
 C      5   1   2     1.684042177832    95.64634570   177.53952212
 N      6   5   1     1.173955759884   178.90075078   180.33890155

---------------------------
INTERNAL COORDINATES (A.U.)
---------------------------
 Co     0   0   0     0.000000000000     0.00000000     0.00000000
 S      1   0   0     4.102571392121     0.00000000     0.00000000
 C      2   1   0     3.182523020595    95.55713157     0.00000000
 N      3   2   1     2.218462296079   178.93975998   180.45877980
 S      1   2   3     4.101931995189   178.72141279   182.47599175
 C      5   1   2     3.182378514075    95.64634570   177.53952212
 N      6   5   1     2.218454879520   178.90075078   180.33890155

---------------------
BASIS SET INFORMATION
---------------------
There are 4 groups of distinct atoms

 Group   1 Type Co  : 17s12p7d2f1g contracted to 10s7p4d2f1g pattern {8111111111/6111111/4111/11/1}
 Group   2 Type S   : 14s9p3d1f contracted to 8s4p3d1f pattern {71111111/6111/111/1}
 Group   3 Type C   : 11s6p2d1f contracted to 6s3p2d1f pattern {611111/411/11/1}
 Group   4 Type N   : 11s6p2d1f contracted to 6s3p2d1f pattern {611111/411/11/1}

Atom   0Co   basis set group =>   1
Atom   1S    basis set group =>   2
Atom   2C    basis set group =>   3
Atom   3N    basis set group =>   4
Atom   4S    basis set group =>   2
Atom   5C    basis set group =>   3
Atom   6N    basis set group =>   4
---------------------------------
AUXILIARY/J BASIS SET INFORMATION
---------------------------------
There are 4 groups of distinct atoms

 Group   1 Type Co  : 22s18p17d17f16g6h3i contracted to 22s18p17d17f16g6h3i pattern {1111111111111111111111/111111111111111111/11111111111111111/11111111111111111/1111111111111111/111111/111}
 Group   2 Type S   : 18s16p15d9f5g contracted to 18s16p15d9f5g pattern {111111111111111111/1111111111111111/111111111111111/111111111/11111}
 Group   3 Type C   : 16s13p12d7f3g contracted to 16s13p12d7f3g pattern {1111111111111111/1111111111111/111111111111/1111111/111}
 Group   4 Type N   : 16s13p12d7f3g contracted to 16s13p12d7f3g pattern {1111111111111111/1111111111111/111111111111/1111111/111}

Atom   0Co   basis set group =>   1
Atom   1S    basis set group =>   2
Atom   2C    basis set group =>   3
Atom   3N    basis set group =>   4
Atom   4S    basis set group =>   2
Atom   5C    basis set group =>   3
Atom   6N    basis set group =>   4
---------------------------------
AUXILIARY/C BASIS SET INFORMATION
---------------------------------
There are 4 groups of distinct atoms

 Group   1 Type Co  : 22s18p17d17f16g6h3i contracted to 22s18p17d17f16g6h3i pattern {1111111111111111111111/111111111111111111/11111111111111111/11111111111111111/1111111111111111/111111/111}
 Group   2 Type S   : 18s16p15d9f5g contracted to 18s16p15d9f5g pattern {111111111111111111/1111111111111111/111111111111111/111111111/11111}
 Group   3 Type C   : 16s13p12d7f3g contracted to 16s13p12d7f3g pattern {1111111111111111/1111111111111/111111111111/1111111/111}
 Group   4 Type N   : 16s13p12d7f3g contracted to 16s13p12d7f3g pattern {1111111111111111/1111111111111/111111111111/1111111/111}

Atom   0Co   basis set group =>   1
Atom   1S    basis set group =>   2
Atom   2C    basis set group =>   3
Atom   3N    basis set group =>   4
Atom   4S    basis set group =>   2
Atom   5C    basis set group =>   3
Atom   6N    basis set group =>   4
----------------------------------
AUXILIARY/JK BASIS SET INFORMATION
----------------------------------
There are 4 groups of distinct atoms

 Group   1 Type Co  : 22s18p17d17f16g6h3i contracted to 22s18p17d17f16g6h3i pattern {1111111111111111111111/111111111111111111/11111111111111111/11111111111111111/1111111111111111/111111/111}
 Group   2 Type S   : 18s16p15d9f5g contracted to 18s16p15d9f5g pattern {111111111111111111/1111111111111111/111111111111111/111111111/11111}
 Group   3 Type C   : 16s13p12d7f3g contracted to 16s13p12d7f3g pattern {1111111111111111/1111111111111/111111111111/1111111/111}
 Group   4 Type N   : 16s13p12d7f3g contracted to 16s13p12d7f3g pattern {1111111111111111/1111111111111/111111111111/1111111/111}

Atom   0Co   basis set group =>   1
Atom   1S    basis set group =>   2
Atom   2C    basis set group =>   3
Atom   3N    basis set group =>   4
Atom   4S    basis set group =>   2
Atom   5C    basis set group =>   3
Atom   6N    basis set group =>   4


           ************************************************************
           *        Program running with 10 parallel MPI-processes    *
           *              working on a common directory               *
           ************************************************************
------------------------------------------------------------------------------
                           ORCA GTO INTEGRAL CALCULATION
                           -- RI-GTO INTEGRALS CHOSEN --
------------------------------------------------------------------------------
------------------------------------------------------------------------------
                   ___                                                        
                  /   \      - P O W E R E D   B Y -                         
                 /     \                                                     
                 |  |  |   _    _      __       _____    __    __             
                 |  |  |  | |  | |    /  \     |  _  \  |  |  /  |          
                  \  \/   | |  | |   /    \    | | | |  |  | /  /          
                 / \  \   | |__| |  /  /\  \   | |_| |  |  |/  /          
                |  |  |   |  __  | /  /__\  \  |    /   |      \           
                |  |  |   | |  | | |   __   |  |    \   |  |\   \          
                \     /   | |  | | |  |  |  |  | |\  \  |  | \   \       
                 \___/    |_|  |_| |__|  |__|  |_| \__\ |__|  \__/        
                                                                              
                      - O R C A' S   B I G   F R I E N D -                    
                                      &                                       
                       - I N T E G R A L  F E E D E R -                       
                                                                              
 v1 FN, 2020, v2 2021                                                         
------------------------------------------------------------------------------


Reading SHARK input file rho.SHARKINP.tmp ... ok
----------------------
SHARK INTEGRAL PACKAGE
----------------------

Number of atoms                             ...      7
Number of basis functions                   ...    286
Number of shells                            ...    104
Maximum angular momentum                    ...      4
Integral batch strategy                     ... SHARK/LIBINT Hybrid
RI-J (if used) integral strategy            ... SPLIT-RIJ (Revised 2003 algorithm where possible)
Printlevel                                  ...      1
Contraction scheme used                     ... SEGMENTED contraction
Coulomb Range Separation                    ... NOT USED
Exchange Range Separation                   ... NOT USED
Finite Nucleus Model                        ... NOT USED
Auxiliary Coulomb fitting basis             ... AVAILABLE
   # of basis functions in Aux-J            ...   1791
   # of shells in Aux-J                     ...    429
   Maximum angular momentum in Aux-J        ...      6
Auxiliary J/K fitting basis                 ... AVAILABLE
   # of basis functions in Aux-JK           ...   1791
   # of shells in Aux-JK                    ...    429
   Maximum angular momentum in Aux-JK       ...      6
Auxiliary Correlation fitting basis         ... AVAILABLE
   # of basis functions in Aux-C            ...   1791
   # of shells in Aux-C                     ...    429
   Maximum angular momentum in Aux-C        ...      6
Auxiliary 'external' fitting basis          ... NOT available
Integral threshold                          ...     1.000000e-12
Primitive cut-off                           ...     1.000000e-14
Primitive pair pre-selection threshold      ...     1.000000e-14

Calculating pre-screening integrals         ... done (  0.0 sec) Dimension = 104
Organizing shell pair data                  ... done (  0.0 sec)
Shell pair information
Total number of shell pairs                 ...      5460
Shell pairs after pre-screening             ...      4352
Total number of primitive shell pairs       ...     15256
Primitive shell pairs kept                  ...      9105
          la=0 lb=0:    850 shell pairs
          la=1 lb=0:   1108 shell pairs
          la=1 lb=1:    356 shell pairs
          la=2 lb=0:    706 shell pairs
          la=2 lb=1:    442 shell pairs
          la=2 lb=2:    154 shell pairs
          la=3 lb=0:    293 shell pairs
          la=3 lb=1:    194 shell pairs
          la=3 lb=2:    128 shell pairs
          la=3 lb=3:     33 shell pairs
          la=4 lb=0:     38 shell pairs
          la=4 lb=1:     25 shell pairs
          la=4 lb=2:     16 shell pairs
          la=4 lb=3:      8 shell pairs
          la=4 lb=4:      1 shell pairs

Calculating one electron integrals          ... done (  0.0 sec)
Calculating RI/J V-Matrix + Cholesky decomp.... done (  0.2 sec)
Calculating RI/JK V-Matrix + Cholesky decomp... done (  0.1 sec)
Calculating RI/C V-Matrix + Cholesky decomp.... done (  0.1 sec)
Calculating Nuclear repulsion               ... done (  0.0 sec) ENN=    555.109257497605 Eh

SHARK setup successfully completed in   1.2 seconds

Maximum memory used throughout the entire GTOINT-calculation: 38.7 MB


           ************************************************************
           *        Program running with 10 parallel MPI-processes    *
           *              working on a common directory               *
           ************************************************************
------------------------------------------------------------------------------
                          ORCA RELATIVISTIC HAMILTONIAN
------------------------------------------------------------------------------

Relativistic Method            ... DKH
Order of DKH treatment         ...   2
Treatment of potential         ... V(e,N)
Eps parameter for DKH          ...   0.00000000010000
Nucleus model                  ... Point Nucleus
Speed of light used            ... 137.03598950000000


            ************************************************
            *        DOUGLAS-KROLL-HESS HAMILTONIAN        *
            *   Programmed by FN according to literature   *
            *        procedures. Special thanks to         *
            *       B.A. Hess, M. Reiher and A. Wolf       *
            *     University Erlangen-Nuernberg/Bonn       *
            ************************************************

Uncontracting the basis (first version)        ... done
Number of contracted basis functions           ...  286
Number of uncontracted basis functions         ...  421
Initializing the DKH file                      ... done
Calculating the relativistic integrals         ... done
Storing DKH matrices                           ... done
Code used for DKH trafo                        ... ORCA
Computing the DKH transformation               ... done
Storing the transformation variables           ... done
Transforming V and pVp to p**2 space           ... done
First transformation of V and pVp              ... done
Second transformation of Veff                  ... done
Adding kinetic energy                          ... done
Back transformation of Veff to r-space         ... done
Recovering DKH matrices                        ... done
Recontracting the H-matrix (first version)     ... done
Computing the DKH correction to the H-matrix   ... done
Reading the original H-matrix                  ... done
Adding DKH correction to the H-matrix          ... done
Storing the new modified H-matrix              ... done

Maximum memory used throughout the entire REL-calculation: 71.0 MB


           ************************************************************
           *        Program running with 10 parallel MPI-processes    *
           *              working on a common directory               *
           ************************************************************
-------------------------------------------------------------------------------
                                 ORCA SCF
-------------------------------------------------------------------------------

------------
SCF SETTINGS
------------
Hamiltonian:
 Ab initio Hamiltonian  Method          .... Hartree-Fock(GTOs)
 RI-approximation to the Coulomb term is turned on
   Number of AuxJ basis functions       .... 1791
   RIJ-COSX (HFX calculated with COS-X)).... on

Relativistic Settings:
 Scalar relativistic method             .... Douglas-Kroll-Hess
 Order of DKH procedure    Order        ....    2
 Mode of DKH-treatment                  .... V=V(e,N)
 Speed of light used       Velit        ....       137.035989
 Cutoff-constant           Eps          ....            1e-10 


General Settings:
 Integral files         IntName         .... rho
 Hartree-Fock type      HFTyp           .... CASSCF
 Total Charge           Charge          ....    0
 Multiplicity           Mult            ....    4
 Number of Electrons    NEL             ....   85
 Basis Dimension        Dim             ....  286
 Nuclear Repulsion      ENuc            ....    555.1092574976 Eh


Diagonalization of the overlap matrix:
Smallest eigenvalue                        ... 4.488e-04
Time for diagonalization                   ...    0.010 sec
Threshold for overlap eigenvalues          ... 1.000e-08
Number of eigenvalues below threshold      ... 0
Time for construction of square roots      ...    0.005 sec
Total time needed                          ...    0.016 sec

---------------------
INITIAL GUESS: MOREAD
---------------------
Guess MOs are being read from file: orb.gbw
Input Geometry matches current geometry (good)
Input basis set matches current basis set (good)
MOs were renormalized
Gram-Schmidt orthogonalization of all MOs with pivot on actives
                      ------------------
                      INITIAL GUESS DONE (   0.2 sec)
                      ------------------
--------------------
COSX GRID GENERATION
--------------------

GRIDX 1
-------
General Integration Accuracy     IntAcc      ... 3.816
Radial Grid Type                 RadialGrid  ... OptM3 with GC (2021)
Angular Grid (max. ang.)         AngularGrid ... 1 (Lebedev-50)
Angular grid pruning method      GridPruning ... 4 (adaptive)
Weight generation scheme         WeightScheme... Becke
Basis function cutoff            BFCut       ... 1.0000e-12
Integration weight cutoff        WCut        ... 1.0000e-14
Angular grids for H and He will be reduced by one unit
Partially contracted basis set               ... on
Rotationally invariant grid construction     ... off

Total number of grid points                  ...     5948
Total number of batches                      ...       96
Average number of points per batch           ...       61
Average number of grid points per atom       ...      850

GRIDX 2
-------
General Integration Accuracy     IntAcc      ... 4.020
Radial Grid Type                 RadialGrid  ... OptM3 with GC (2021)
Angular Grid (max. ang.)         AngularGrid ... 2 (Lebedev-110)
Angular grid pruning method      GridPruning ... 4 (adaptive)
Weight generation scheme         WeightScheme... Becke
Basis function cutoff            BFCut       ... 1.0000e-12
Integration weight cutoff        WCut        ... 1.0000e-14
Angular grids for H and He will be reduced by one unit
Partially contracted basis set               ... on
Rotationally invariant grid construction     ... off

Total number of grid points                  ...    14018
Total number of batches                      ...      223
Average number of points per batch           ...       62
Average number of grid points per atom       ...     2003

GRIDX 3
-------
General Integration Accuracy     IntAcc      ... 4.338
Radial Grid Type                 RadialGrid  ... OptM3 with GC (2021)
Angular Grid (max. ang.)         AngularGrid ... 3 (Lebedev-194)
Angular grid pruning method      GridPruning ... 4 (adaptive)
Weight generation scheme         WeightScheme... Becke
Basis function cutoff            BFCut       ... 1.0000e-12
Integration weight cutoff        WCut        ... 1.0000e-14
Angular grids for H and He will be reduced by one unit
Partially contracted basis set               ... on
Rotationally invariant grid construction     ... off

Total number of grid points                  ...    32577
Total number of batches                      ...      512
Average number of points per batch           ...       63
Average number of grid points per atom       ...     4654

Time for X-Grid setup             =    0.218 sec



 ... the calculation is a CASSCF calculation -I'm leaving here GOOD LUCK!!!



           ************************************************************
           *        Program running with 10 parallel MPI-processes    *
           *              working on a common directory               *
           ************************************************************
-------------------------------------------------------------------------------
                              ORCA-CASSCF
-------------------------------------------------------------------------------

Setting up the integral package       ... done
Setting up the integral package (RI)  ... done
Building the CAS space                ... done (10 configurations for Mult=4)
Building the CAS space                ... done (30 configurations for Mult=2)

SYSTEM-SPECIFIC SETTINGS:
Number of active electrons          ...    7
Number of active orbitals           ...    5
Total number of electrons           ...   85
Total number of orbitals            ...  286
Total number aux. functions         ... 1791

Determined orbital ranges:
   Internal       0 -   38 (  39 orbitals)
   Active        39 -   43 (   5 orbitals)
   External      44 -  285 ( 242 orbitals)
Number of rotation parameters      ...  10843

CI-STEP:
CI strategy                         ... General CI
Number of multiplicity blocks       ...    2
BLOCK  1 WEIGHT=   0.5000
  Multiplicity                      ...    4
  #(Configurations)                 ...   10
  #(CSFs)                           ...   10
  #(Roots)                          ...   10
    ROOT=0 WEIGHT=    0.050000
    ROOT=1 WEIGHT=    0.050000
    ROOT=2 WEIGHT=    0.050000
    ROOT=3 WEIGHT=    0.050000
    ROOT=4 WEIGHT=    0.050000
    ROOT=5 WEIGHT=    0.050000
    ROOT=6 WEIGHT=    0.050000
    ROOT=7 WEIGHT=    0.050000
    ROOT=8 WEIGHT=    0.050000
    ROOT=9 WEIGHT=    0.050000

BLOCK  2 WEIGHT=   0.5000
  Multiplicity                      ...    2
  #(Configurations)                 ...   30
  #(CSFs)                           ...   40
  #(Roots)                          ...   40
    ROOT=0 WEIGHT=    0.012500
    ROOT=1 WEIGHT=    0.012500
    ROOT=2 WEIGHT=    0.012500
    ROOT=3 WEIGHT=    0.012500
    ROOT=4 WEIGHT=    0.012500
    ROOT=5 WEIGHT=    0.012500
    ROOT=6 WEIGHT=    0.012500
    ROOT=7 WEIGHT=    0.012500
    ROOT=8 WEIGHT=    0.012500
    ROOT=9 WEIGHT=    0.012500
    ROOT=10 WEIGHT=    0.012500
    ROOT=11 WEIGHT=    0.012500
    ROOT=12 WEIGHT=    0.012500
    ROOT=13 WEIGHT=    0.012500
    ROOT=14 WEIGHT=    0.012500
    ROOT=15 WEIGHT=    0.012500
    ROOT=16 WEIGHT=    0.012500
    ROOT=17 WEIGHT=    0.012500
    ROOT=18 WEIGHT=    0.012500
    ROOT=19 WEIGHT=    0.012500
    ROOT=20 WEIGHT=    0.012500
    ROOT=21 WEIGHT=    0.012500
    ROOT=22 WEIGHT=    0.012500
    ROOT=23 WEIGHT=    0.012500
    ROOT=24 WEIGHT=    0.012500
    ROOT=25 WEIGHT=    0.012500
    ROOT=26 WEIGHT=    0.012500
    ROOT=27 WEIGHT=    0.012500
    ROOT=28 WEIGHT=    0.012500
    ROOT=29 WEIGHT=    0.012500
    ROOT=30 WEIGHT=    0.012500
    ROOT=31 WEIGHT=    0.012500
    ROOT=32 WEIGHT=    0.012500
    ROOT=33 WEIGHT=    0.012500
    ROOT=34 WEIGHT=    0.012500
    ROOT=35 WEIGHT=    0.012500
    ROOT=36 WEIGHT=    0.012500
    ROOT=37 WEIGHT=    0.012500
    ROOT=38 WEIGHT=    0.012500
    ROOT=39 WEIGHT=    0.012500

  PrintLevel                        ...    1
  N(GuessMat)                       ...       512
  MaxDim(CI)                        ...        10
  MaxIter(CI)                       ...        64
  Energy Tolerance CI               ...  1.00e-09
  Residual Tolerance CI             ...  1.00e-09
  Shift(CI)                         ...  1.00e-04

INTEGRAL-TRANSFORMATION-STEP:
  Algorithm                         ... RI-MO

ORBITAL-IMPROVEMENT-STEP:
  Algorithm                         ... SuperCI
  Default Parametrization           ... CAYLEY
  Act-Act rotations                 ... depends on algorithm used
  FreezeIE                          ... 95.00% of ||g||
  Until reaching FreezeIE rotations with active orbitals are damped. 

  Approx. Fock at                   ... 0.000000e+00 density convergence
  Level shift                       ... energy gap dependent. Minimum=1.000
  Switch step at gradient           ...  3.00e-02 
  Switch step at iteration          ...        50   
  Switch step to                    ... DIIS    

SCF-SETTINGS:
  Incremental                       ... off
  RIJCOSX approximation             ... on
  UseFinalGrid                      ... on
  RI-JK approximation               ... off
  AO integral handling              ... DIRECT
  Integral Neglect Thresh           ...  1.00e-12
  Primitive cutoff TCut             ...  1.00e-14
  Energy convergence tolerance      ...  1.00e-08
  Orbital gradient convergence      ...  1.00e-05
  Max. number of iterations         ...       100  


PROPERTIES-SETTINGS:
  Spin orbit coupling               ... true
  GTensor                           ... true

FINAL ORBITALS:
  Active   Orbitals                 ... d-orbitals 
  Internal Orbitals                 ... canonical 
  External Orbitals                 ... canonical 

------------------
CAS-SCF ITERATIONS
------------------


MACRO-ITERATION   1: 
   --- Canonicalize Internal Space
   --- Canonicalize External Space
   --- Inactive Energy E0 = -2350.60563348 Eh
CI-ITERATION   0: 
 -2373.894343672   0.000000000000 (    0.00)
 -2373.894154641   0.000000000000
 -2373.885748573   0.000000000000
 -2373.883968388   0.000000000000
 -2373.883506579   0.000000000000
 -2373.882683483   0.000000000000
 -2373.880499538   0.000000000000
 -2373.814491982   0.000000000000
 -2373.806064638   0.000000000000
 -2373.794460228   0.000000000000
   CI-PROBLEM SOLVED
   DENSITIES MADE
CI-ITERATION   0: 
 -2373.811973453   0.000000000000 (    0.00)
 -2373.811182592   0.000000000000
 -2373.811108581   0.000000000000
 -2373.810567507   0.000000000000
 -2373.808523619   0.000000000000
 -2373.806537686   0.000000000000
 -2373.806100153   0.000000000000
 -2373.800965790   0.000000000000
 -2373.800681736   0.000000000000
 -2373.790542323   0.000000000000
 -2373.789620332   0.000000000000
 -2373.789136817   0.000000000000
 -2373.785405688   0.000000000000
 -2373.783037175   0.000000000000
 -2373.781519201   0.000000000000
 -2373.781069023   0.000000000000
 -2373.778215726   0.000000000000
 -2373.776638800   0.000000000000
 -2373.775499245   0.000000000000
 -2373.775020285   0.000000000000
 -2373.773112103   0.000000000000
 -2373.770347520   0.000000000000
 -2373.767568268   0.000000000000
 -2373.765020338   0.000000000000
 -2373.764564608   0.000000000000
 -2373.764148768   0.000000000000
 -2373.762887066   0.000000000000
 -2373.762105841   0.000000000000
 -2373.703226425   0.000000000000
 -2373.703028857   0.000000000000
 -2373.697652160   0.000000000000
 -2373.697104589   0.000000000000
 -2373.695032198   0.000000000000
 -2373.692771053   0.000000000000
 -2373.692665754   0.000000000000
 -2373.598671975   0.000000000000
 -2373.598414726   0.000000000000
 -2373.592684728   0.000000000000
 -2373.576580744   0.000000000000
 -2373.575311032   0.000000000000
   CI-PROBLEM SOLVED
   DENSITIES MADE

                 <<<<<<<<<<<<<<<<<<INITIAL CI STATE CHECK>>>>>>>>>>>>>>>>>>

BLOCK  1 MULT= 4 NROOTS=10 
ROOT   0:  E=   -2373.8943436719 Eh
      0.34187 [     2]: 11221
      0.19829 [     9]: 22111
      0.15665 [     8]: 21211
      0.12332 [     0]: 11122
      0.08693 [     4]: 12121
      0.06950 [     1]: 11212
      0.02043 [     5]: 12211
ROOT   1:  E=   -2373.8941546410 Eh  0.005 eV     41.5 cm**-1
      0.36451 [     6]: 21112
      0.23601 [     7]: 21121
      0.17573 [     0]: 11122
      0.07001 [     5]: 12211
      0.06437 [     2]: 11221
      0.04571 [     8]: 21211
      0.03601 [     4]: 12121
      0.00487 [     3]: 12112
ROOT   2:  E=   -2373.8857485734 Eh  0.234 eV   1886.4 cm**-1
      0.35291 [     0]: 11122
      0.32551 [     9]: 22111
      0.09362 [     6]: 21112
      0.07133 [     4]: 12121
      0.05659 [     3]: 12112
      0.04570 [     7]: 21121
      0.02195 [     2]: 11221
      0.01987 [     5]: 12211
      0.01151 [     8]: 21211
ROOT   3:  E=   -2373.8839683879 Eh  0.282 eV   2277.1 cm**-1
      0.45658 [     5]: 12211
      0.20178 [     1]: 11212
      0.16705 [     2]: 11221
      0.07480 [     8]: 21211
      0.05082 [     9]: 22111
      0.02217 [     3]: 12112
      0.01335 [     7]: 21121
      0.00799 [     6]: 21112
      0.00311 [     0]: 11122
ROOT   4:  E=   -2373.8835065790 Eh  0.295 eV   2378.5 cm**-1
      0.30051 [     1]: 11212
      0.25336 [     8]: 21211
      0.18861 [     6]: 21112
      0.08748 [     2]: 11221
      0.05948 [     7]: 21121
      0.05332 [     4]: 12121
      0.03981 [     3]: 12112
      0.01529 [     9]: 22111
ROOT   5:  E=   -2373.8826834833 Eh  0.317 eV   2559.1 cm**-1
      0.26317 [     0]: 11122
      0.19432 [     9]: 22111
      0.17822 [     8]: 21211
      0.12587 [     6]: 21112
      0.12059 [     3]: 12112
      0.10115 [     2]: 11221
      0.01029 [     4]: 12121
      0.00444 [     5]: 12211
ROOT   6:  E=   -2373.8804995375 Eh  0.377 eV   3038.4 cm**-1
      0.39330 [     4]: 12121
      0.31664 [     3]: 12112
      0.15474 [     9]: 22111
      0.07352 [     5]: 12211
      0.02923 [     0]: 11122
      0.02212 [     7]: 21121
      0.00873 [     6]: 21112
ROOT   7:  E=   -2373.8144919824 Eh  2.173 eV  17525.4 cm**-1
      0.26969 [     3]: 12112
      0.21509 [     7]: 21121
      0.15972 [     1]: 11212
      0.13846 [     8]: 21211
      0.13393 [     4]: 12121
      0.05817 [     6]: 21112
      0.01391 [     9]: 22111
      0.00772 [     5]: 12211
      0.00323 [     2]: 11221
ROOT   8:  E=   -2373.8060646377 Eh  2.402 eV  19375.0 cm**-1
      0.29993 [     7]: 21121
      0.20418 [     4]: 12121
      0.14736 [     3]: 12112
      0.12244 [     6]: 21112
      0.08408 [     1]: 11212
      0.04842 [     8]: 21211
      0.04482 [     0]: 11122
      0.03454 [     2]: 11221
      0.00907 [     9]: 22111
      0.00518 [     5]: 12211
ROOT   9:  E=   -2373.7944602284 Eh  2.718 eV  21921.9 cm**-1
      0.34200 [     5]: 12211
      0.18101 [     1]: 11212
      0.17720 [     2]: 11221
      0.10651 [     7]: 21121
      0.09232 [     8]: 21211
      0.03640 [     9]: 22111
      0.02855 [     6]: 21112
      0.02192 [     3]: 12112
      0.00836 [     4]: 12121
      0.00573 [     0]: 11122

BLOCK  2 MULT= 2 NROOTS=40 
ROOT   0:  E=   -2373.8119734532 Eh
      0.19385 [    18]: 21112
      0.14880 [     7]: 11221
      0.09918 [    19]: 21121
      0.09320 [    26]: 22111
      0.08236 [    14]: 20122
      0.07187 [    17]: 21022
      0.05656 [    21]: 21211
      0.05474 [     1]: 02122
      0.03551 [    12]: 12211
      0.03184 [     5]: 11122
      0.02797 [    20]: 21202
      0.01379 [    10]: 12121
      0.01234 [    29]: 22210
      0.01188 [    15]: 20212
      0.01045 [     6]: 11212
      0.01030 [     3]: 02221
      0.00876 [    11]: 12202
      0.00746 [     0]: 01222
      0.00689 [    22]: 21220
      0.00562 [    13]: 12220
      0.00547 [    16]: 20221
      0.00513 [     9]: 12112
ROOT   1:  E=   -2373.8111825922 Eh  0.022 eV    173.6 cm**-1
      0.10859 [    17]: 21022
      0.10710 [     5]: 11122
      0.09777 [    10]: 12121
      0.09512 [    21]: 21211
      0.07086 [    23]: 22012
      0.06960 [    19]: 21121
      0.06585 [    15]: 20212
      0.05323 [    24]: 22021
      0.04967 [    18]: 21112
      0.04610 [    16]: 20221
      0.03440 [    26]: 22111
      0.02667 [     0]: 01222
      0.02174 [     4]: 10222
      0.02038 [     8]: 12022
      0.01992 [     2]: 02212
      0.01763 [    29]: 22210
      0.01537 [    28]: 22201
      0.01415 [     9]: 12112
      0.01365 [    20]: 21202
      0.01330 [     3]: 02221
      0.01229 [     7]: 11221
      0.01015 [    12]: 12211
      0.00599 [    25]: 22102
      0.00506 [    11]: 12202
      0.00369 [    13]: 12220
ROOT   2:  E=   -2373.8111085806 Eh  0.024 eV    189.8 cm**-1
      0.22124 [     5]: 11122
      0.11403 [     4]: 10222
      0.11327 [    12]: 12211
      0.08393 [    29]: 22210
      0.08198 [    28]: 22201
      0.06128 [    16]: 20221
      0.05839 [    13]: 12220
      0.04203 [    26]: 22111
      0.03157 [     3]: 02221
      0.03095 [    19]: 21121
      0.02931 [    18]: 21112
      0.02775 [    24]: 22021
      0.02518 [    23]: 22012
      0.01219 [    22]: 21220
      0.01188 [    25]: 22102
      0.00970 [     0]: 01222
      0.00771 [     6]: 11212
      0.00760 [    10]: 12121
      0.00713 [    20]: 21202
      0.00613 [    14]: 20122
      0.00482 [    17]: 21022
      0.00461 [    27]: 22120
      0.00388 [     7]: 11221
ROOT   3:  E=   -2373.8105675074 Eh  0.038 eV    308.6 cm**-1
      0.16197 [    26]: 22111
      0.15152 [    10]: 12121
      0.10065 [     5]: 11122
      0.08233 [     7]: 11221
      0.06614 [     4]: 10222
      0.06019 [    27]: 22120
      0.05840 [     8]: 12022
      0.03672 [     6]: 11212
      0.03387 [    19]: 21121
      0.03122 [    24]: 22021
      0.02644 [    25]: 22102
      0.02592 [     9]: 12112
      0.02522 [    15]: 20212
      0.01955 [     1]: 02122
      0.01877 [    28]: 22201
      0.01835 [    22]: 21220
      0.01394 [    12]: 12211
      0.01290 [    13]: 12220
      0.01166 [    20]: 21202
      0.00871 [     3]: 02221
      0.00818 [    21]: 21211
      0.00728 [    18]: 21112
      0.00690 [     0]: 01222
      0.00540 [    17]: 21022
      0.00303 [    29]: 22210
ROOT   4:  E=   -2373.8085236194 Eh  0.094 eV    757.2 cm**-1
      0.14819 [     7]: 11221
      0.13379 [    21]: 21211
      0.09718 [    18]: 21112
      0.07142 [     6]: 11212
      0.06839 [     5]: 11122
      0.05608 [    19]: 21121
      0.04828 [    29]: 22210
      0.04622 [     3]: 02221
      0.03836 [    15]: 20212
      0.03606 [    14]: 20122
      0.02988 [     9]: 12112
      0.02783 [    16]: 20221
      0.02589 [    25]: 22102
      0.02329 [    10]: 12121
      0.02183 [    11]: 12202
      0.01997 [    12]: 12211
      0.01959 [    26]: 22111
      0.01918 [     4]: 10222
      0.01435 [    20]: 21202
      0.01290 [    27]: 22120
      0.00986 [     2]: 02212
      0.00841 [     8]: 12022
      0.00748 [    28]: 22201
      0.00630 [    24]: 22021
      0.00263 [    17]: 21022
ROOT   5:  E=   -2373.8065376856 Eh  0.148 eV   1193.0 cm**-1
      0.11489 [    26]: 22111
      0.10828 [     9]: 12112
      0.10763 [    10]: 12121
      0.07593 [    21]: 21211
      0.06868 [    23]: 22012
      0.06852 [    15]: 20212
      0.06327 [     3]: 02221
      0.05841 [    16]: 20221
      0.05424 [     5]: 11122
      0.04797 [     8]: 12022
      0.04558 [    19]: 21121
      0.04200 [    18]: 21112
      0.03003 [     4]: 10222
      0.02707 [    13]: 12220
      0.01952 [    12]: 12211
      0.01678 [     6]: 11212
      0.01524 [    11]: 12202
      0.01241 [    17]: 21022
      0.00510 [     7]: 11221
      0.00400 [    20]: 21202
      0.00380 [    25]: 22102
      0.00289 [    22]: 21220
ROOT   6:  E=   -2373.8061001533 Eh  0.160 eV   1289.0 cm**-1
      0.15920 [    21]: 21211
      0.14467 [     0]: 01222
      0.10382 [    18]: 21112
      0.06122 [    23]: 22012
      0.05704 [     7]: 11221
      0.05413 [     6]: 11212
      0.05123 [    22]: 21220
      0.05069 [    10]: 12121
      0.04223 [    26]: 22111
      0.04055 [    25]: 22102
      0.03439 [    12]: 12211
      0.02892 [    27]: 22120
      0.02791 [    13]: 12220
      0.02790 [     5]: 11122
      0.02063 [     8]: 12022
      0.01957 [    29]: 22210
      0.01554 [     9]: 12112
      0.01422 [    28]: 22201
      0.00885 [     2]: 02212
      0.00873 [    17]: 21022
      0.00627 [     3]: 02221
      0.00427 [    15]: 20212
      0.00393 [    20]: 21202
      0.00380 [    11]: 12202
      0.00315 [    16]: 20221
      0.00272 [    24]: 22021
ROOT   7:  E=   -2373.8009657900 Eh  0.300 eV   2415.9 cm**-1
      0.19807 [    21]: 21211
      0.14220 [     5]: 11122
      0.11512 [     7]: 11221
      0.08971 [    12]: 12211
      0.06366 [    10]: 12121
      0.06297 [    20]: 21202
      0.03664 [     4]: 10222
      0.03598 [     6]: 11212
      0.02936 [    29]: 22210
      0.02801 [    25]: 22102
      0.02364 [    24]: 22021
      0.02331 [    27]: 22120
      0.02179 [     8]: 12022
      0.01871 [    19]: 21121
      0.01775 [     9]: 12112
      0.01742 [     2]: 02212
      0.01485 [    17]: 21022
      0.01451 [     0]: 01222
      0.01363 [    11]: 12202
      0.01351 [    26]: 22111
      0.00514 [    18]: 21112
      0.00395 [    13]: 12220
      0.00282 [    23]: 22012
ROOT   8:  E=   -2373.8006817361 Eh  0.307 eV   2478.2 cm**-1
      0.13352 [    28]: 22201
      0.10190 [     7]: 11221
      0.09450 [    18]: 21112
      0.08881 [     6]: 11212
      0.08709 [    17]: 21022
      0.07803 [    13]: 12220
      0.06460 [     0]: 01222
      0.04278 [     5]: 11122
      0.04270 [    24]: 22021
      0.03290 [    15]: 20212
      0.03041 [     9]: 12112
      0.02688 [    19]: 21121
      0.02468 [    21]: 21211
      0.02276 [    29]: 22210
      0.01951 [    16]: 20221
      0.01799 [     1]: 02122
      0.01798 [    10]: 12121
      0.01532 [    11]: 12202
      0.01103 [    23]: 22012
      0.00981 [     4]: 10222
      0.00961 [    12]: 12211
      0.00637 [     3]: 02221
      0.00507 [    20]: 21202
      0.00486 [     8]: 12022
      0.00435 [     2]: 02212
      0.00409 [    26]: 22111
ROOT   9:  E=   -2373.7905423233 Eh  0.583 eV   4703.6 cm**-1
      0.16107 [     5]: 11122
      0.14087 [    18]: 21112
      0.09674 [     9]: 12112
      0.09035 [    23]: 22012
      0.07274 [    26]: 22111
      0.06400 [    24]: 22021
      0.06248 [    12]: 12211
      0.04349 [    29]: 22210
      0.03051 [    10]: 12121
      0.02911 [    20]: 21202
      0.02866 [     0]: 01222
      0.02700 [     4]: 10222
      0.02474 [     7]: 11221
      0.02229 [    28]: 22201
      0.02129 [     1]: 02122
      0.01310 [    16]: 20221
      0.01199 [     2]: 02212
      0.01153 [     8]: 12022
      0.01076 [    25]: 22102
      0.00816 [    19]: 21121
      0.00791 [    21]: 21211
      0.00569 [    11]: 12202
      0.00406 [    17]: 21022
      0.00401 [     6]: 11212
      0.00373 [    22]: 21220
ROOT  10:  E=   -2373.7896203318 Eh  0.608 eV   4905.9 cm**-1
      0.19030 [     8]: 12022
      0.13676 [    23]: 22012
      0.12692 [    26]: 22111
      0.05797 [     4]: 10222
      0.04981 [     6]: 11212
      0.04584 [    10]: 12121
      0.04497 [    19]: 21121
      0.04296 [     9]: 12112
      0.03934 [    15]: 20212
      0.03347 [    18]: 21112
      0.03178 [    21]: 21211
      0.03175 [    25]: 22102
      0.02218 [     5]: 11122
      0.02134 [    28]: 22201
      0.01701 [     0]: 01222
      0.01543 [     1]: 02122
      0.01350 [    11]: 12202
      0.01323 [    27]: 22120
      0.00986 [     7]: 11221
      0.00909 [    12]: 12211
      0.00859 [    20]: 21202
      0.00807 [    24]: 22021
      0.00625 [    29]: 22210
      0.00585 [     2]: 02212
      0.00565 [     3]: 02221
      0.00439 [    13]: 12220
      0.00380 [    22]: 21220
      0.00317 [    14]: 20122
ROOT  11:  E=   -2373.7891368173 Eh  0.621 eV   5012.1 cm**-1
      0.22919 [    26]: 22111
      0.10967 [    14]: 20122
      0.08425 [     1]: 02122
      0.05877 [     7]: 11221
      0.05799 [     4]: 10222
      0.05633 [    21]: 21211
      0.05509 [    16]: 20221
      0.04589 [     6]: 11212
      0.03650 [     5]: 11122
      0.03276 [    18]: 21112
      0.02978 [    13]: 12220
      0.02904 [    15]: 20212
      0.02434 [    28]: 22201
      0.02414 [     2]: 02212
      0.02353 [    10]: 12121
      0.02254 [     9]: 12112
      0.02012 [    19]: 21121
      0.01398 [    29]: 22210
      0.01318 [    22]: 21220
      0.01192 [    25]: 22102
      0.00920 [    12]: 12211
      0.00444 [    20]: 21202
      0.00254 [     3]: 02221
ROOT  12:  E=   -2373.7854056881 Eh  0.723 eV   5831.0 cm**-1
      0.16820 [     6]: 11212
      0.12018 [     7]: 11221
      0.10097 [    22]: 21220
      0.06895 [    18]: 21112
      0.06798 [    20]: 21202
      0.06606 [    23]: 22012
      0.05707 [     1]: 02122
      0.04592 [     9]: 12112
      0.03963 [    26]: 22111
      0.03779 [    19]: 21121
      0.03743 [    12]: 12211
      0.03612 [    27]: 22120
      0.02630 [    21]: 21211
      0.02487 [    24]: 22021
      0.02295 [     8]: 12022
      0.02197 [     5]: 11122
      0.01416 [    10]: 12121
      0.01163 [     3]: 02221
      0.00957 [     0]: 01222
      0.00605 [    16]: 20221
      0.00569 [    25]: 22102
      0.00496 [    11]: 12202
ROOT  13:  E=   -2373.7830371748 Eh  0.787 eV   6350.8 cm**-1
      0.18606 [    21]: 21211
      0.12892 [    25]: 22102
      0.10127 [     5]: 11122
      0.09512 [     0]: 01222
      0.08094 [     7]: 11221
      0.07437 [    10]: 12121
      0.05176 [    15]: 20212
      0.04143 [    27]: 22120
      0.03143 [    19]: 21121
      0.02426 [     6]: 11212
      0.02310 [    12]: 12211
      0.02195 [    29]: 22210
      0.01859 [     4]: 10222
      0.01547 [    20]: 21202
      0.01511 [    18]: 21112
      0.01429 [    11]: 12202
      0.01349 [     1]: 02122
      0.01138 [    26]: 22111
      0.01134 [    22]: 21220
      0.00870 [     9]: 12112
      0.00769 [    16]: 20221
      0.00570 [    24]: 22021
      0.00545 [    13]: 12220
      0.00429 [    17]: 21022
      0.00264 [    23]: 22012
ROOT  14:  E=   -2373.7815192012 Eh  0.829 eV   6683.9 cm**-1
      0.24220 [     9]: 12112
      0.08024 [    29]: 22210
      0.05609 [     0]: 01222
      0.05433 [    12]: 12211
      0.05238 [    17]: 21022
      0.04440 [    21]: 21211
      0.04374 [     6]: 11212
      0.03688 [     2]: 02212
      0.03663 [    27]: 22120
      0.03603 [    20]: 21202
      0.03478 [    10]: 12121
      0.03377 [    19]: 21121
      0.03236 [    24]: 22021
      0.02830 [     7]: 11221
      0.02802 [    22]: 21220
      0.01937 [    16]: 20221
      0.01926 [     3]: 02221
      0.01822 [     4]: 10222
      0.01731 [    28]: 22201
      0.01676 [     8]: 12022
      0.01479 [    13]: 12220
      0.01245 [    11]: 12202
      0.00811 [     5]: 11122
      0.00787 [    18]: 21112
      0.00724 [    15]: 20212
      0.00569 [    26]: 22111
      0.00569 [    25]: 22102
      0.00485 [    14]: 20122
ROOT  15:  E=   -2373.7810690231 Eh  0.841 eV   6782.7 cm**-1
      0.14172 [     6]: 11212
      0.13171 [    12]: 12211
      0.09522 [    25]: 22102
      0.09188 [    14]: 20122
      0.07481 [    10]: 12121
      0.06593 [     7]: 11221
      0.05157 [    13]: 12220
      0.03946 [    19]: 21121
      0.03150 [    22]: 21220
      0.02991 [    11]: 12202
      0.02938 [     1]: 02122
      0.02853 [    26]: 22111
      0.02536 [     2]: 02212
      0.02507 [    27]: 22120
      0.02101 [    20]: 21202
      0.02011 [     9]: 12112
      0.01908 [     5]: 11122
      0.01412 [    29]: 22210
      0.00874 [    24]: 22021
      0.00837 [    21]: 21211
      0.00762 [    17]: 21022
      0.00707 [    18]: 21112
      0.00651 [    28]: 22201
      0.00640 [     0]: 01222
      0.00522 [     3]: 02221
      0.00514 [    16]: 20221
      0.00424 [     4]: 10222
      0.00378 [    23]: 22012
ROOT  16:  E=   -2373.7782157261 Eh  0.919 eV   7409.0 cm**-1
      0.13306 [     5]: 11122
      0.08334 [     4]: 10222
      0.07203 [    20]: 21202
      0.06616 [     6]: 11212
      0.05506 [    27]: 22120
      0.04843 [     8]: 12022
      0.04619 [    19]: 21121
      0.04197 [    18]: 21112
      0.04016 [     9]: 12112
      0.03951 [    24]: 22021
      0.03888 [    28]: 22201
      0.03627 [    29]: 22210
      0.03627 [    12]: 12211
      0.03498 [    26]: 22111
      0.03274 [    10]: 12121
      0.03047 [    15]: 20212
      0.02801 [    23]: 22012
      0.02556 [    11]: 12202
      0.02384 [    22]: 21220
      0.02056 [     7]: 11221
      0.01696 [    13]: 12220
      0.01200 [    25]: 22102
      0.01122 [    14]: 20122
      0.00953 [     3]: 02221
      0.00643 [    17]: 21022
      0.00540 [     1]: 02122
ROOT  17:  E=   -2373.7766388004 Eh  0.962 eV   7755.1 cm**-1
      0.18953 [     5]: 11122
      0.11696 [    21]: 21211
      0.09232 [     6]: 11212
      0.09131 [    26]: 22111
      0.08925 [    25]: 22102
      0.08034 [    18]: 21112
      0.06883 [    10]: 12121
      0.04966 [     8]: 12022
      0.03737 [    22]: 21220
      0.03250 [    12]: 12211
      0.03059 [    19]: 21121
      0.02578 [     7]: 11221
      0.02488 [    17]: 21022
      0.02136 [     1]: 02122
      0.01552 [    27]: 22120
      0.00995 [    15]: 20212
      0.00869 [     9]: 12112
      0.00337 [    23]: 22012
      0.00328 [    24]: 22021
ROOT  18:  E=   -2373.7754992447 Eh  0.993 eV   8005.2 cm**-1
      0.24887 [    10]: 12121
      0.08676 [    21]: 21211
      0.08349 [    14]: 20122
      0.06903 [    19]: 21121
      0.06827 [    12]: 12211
      0.05167 [    29]: 22210
      0.05086 [    25]: 22102
      0.04623 [     3]: 02221
      0.04444 [     6]: 11212
      0.03841 [    15]: 20212
      0.03773 [     0]: 01222
      0.03744 [     2]: 02212
      0.02363 [     9]: 12112
      0.01842 [    22]: 21220
      0.01579 [    27]: 22120
      0.01383 [     7]: 11221
      0.01373 [    18]: 21112
      0.01263 [    16]: 20221
      0.01009 [    20]: 21202
      0.00696 [    13]: 12220
      0.00613 [    26]: 22111
      0.00490 [     1]: 02122
      0.00373 [    17]: 21022
ROOT  19:  E=   -2373.7750202849 Eh  1.006 eV   8110.3 cm**-1
      0.10073 [    28]: 22201
      0.10027 [    18]: 21112
      0.09865 [    26]: 22111
      0.09073 [     1]: 02122
      0.08433 [     6]: 11212
      0.07151 [    12]: 12211
      0.05414 [     9]: 12112
      0.04626 [     3]: 02221
      0.04109 [    19]: 21121
      0.04057 [    15]: 20212
      0.03671 [     0]: 01222
      0.03016 [    16]: 20221
      0.02159 [    21]: 21211
      0.02085 [    27]: 22120
      0.02012 [    14]: 20122
      0.02008 [    13]: 12220
      0.01872 [    29]: 22210
      0.01674 [     8]: 12022
      0.01549 [    17]: 21022
      0.01365 [    10]: 12121
      0.01336 [     4]: 10222
      0.01026 [    22]: 21220
      0.00958 [    11]: 12202
      0.00882 [     2]: 02212
      0.00517 [     5]: 11122
      0.00413 [    24]: 22021
      0.00379 [     7]: 11221
ROOT  20:  E=   -2373.7731121031 Eh  1.057 eV   8529.1 cm**-1
      0.13611 [    19]: 21121
      0.11399 [     7]: 11221
      0.09992 [    18]: 21112
      0.08462 [     8]: 12022
      0.07361 [    20]: 21202
      0.05804 [     4]: 10222
      0.05448 [    10]: 12121
      0.03950 [    24]: 22021
      0.03548 [    26]: 22111
      0.03483 [    12]: 12211
      0.03172 [     9]: 12112
      0.02874 [    28]: 22201
      0.02693 [     1]: 02122
      0.02557 [    27]: 22120
      0.01961 [     0]: 01222
      0.01769 [    29]: 22210
      0.01707 [    22]: 21220
      0.01513 [     6]: 11212
      0.01480 [    13]: 12220
      0.01478 [     5]: 11122
      0.01434 [    14]: 20122
      0.01409 [    25]: 22102
      0.01167 [    15]: 20212
      0.01060 [    16]: 20221
      0.00270 [    23]: 22012
ROOT  21:  E=   -2373.7703475201 Eh  1.133 eV   9135.8 cm**-1
      0.16431 [    26]: 22111
      0.14426 [     9]: 12112
      0.08320 [    17]: 21022
      0.07995 [    23]: 22012
      0.07238 [    14]: 20122
      0.04302 [     3]: 02221
      0.04275 [     6]: 11212
      0.03623 [    25]: 22102
      0.03532 [     0]: 01222
      0.03438 [    21]: 21211
      0.03386 [     1]: 02122
      0.03371 [    28]: 22201
      0.02416 [     4]: 10222
      0.02377 [    24]: 22021
      0.02200 [     2]: 02212
      0.02157 [    19]: 21121
      0.02145 [    10]: 12121
      0.01691 [     7]: 11221
      0.01324 [    22]: 21220
      0.01312 [    16]: 20221
      0.00919 [    12]: 12211
      0.00917 [    15]: 20212
      0.00876 [    11]: 12202
      0.00446 [     8]: 12022
      0.00289 [    20]: 21202
ROOT  22:  E=   -2373.7675682684 Eh  1.208 eV   9745.8 cm**-1
      0.18415 [    12]: 12211
      0.11835 [     9]: 12112
      0.11327 [    28]: 22201
      0.06849 [     3]: 02221
      0.05481 [    19]: 21121
      0.05022 [     7]: 11221
      0.04642 [     2]: 02212
      0.04044 [     1]: 02122
      0.03661 [     6]: 11212
      0.03543 [    18]: 21112
      0.03523 [    22]: 21220
      0.03498 [    15]: 20212
      0.02876 [    20]: 21202
      0.02215 [     5]: 11122
      0.01808 [    25]: 22102
      0.01704 [    10]: 12121
      0.01598 [     4]: 10222
      0.01401 [    11]: 12202
      0.01328 [    24]: 22021
      0.01290 [    16]: 20221
      0.01085 [    26]: 22111
      0.00934 [    13]: 12220
      0.00649 [    27]: 22120
      0.00635 [    23]: 22012
      0.00308 [    21]: 21211
ROOT  23:  E=   -2373.7650203377 Eh  1.278 eV  10305.0 cm**-1
      0.19893 [    29]: 22210
      0.17316 [     0]: 01222
      0.09477 [     7]: 11221
      0.06320 [    26]: 22111
      0.04800 [    17]: 21022
      0.04728 [     5]: 11122
      0.04349 [     3]: 02221
      0.03545 [    24]: 22021
      0.03318 [     6]: 11212
      0.03210 [    12]: 12211
      0.03100 [     9]: 12112
      0.02825 [    25]: 22102
      0.02535 [    23]: 22012
      0.02384 [    28]: 22201
      0.02173 [    11]: 12202
      0.01967 [     1]: 02122
      0.01852 [    27]: 22120
      0.01528 [    22]: 21220
      0.00983 [     4]: 10222
      0.00902 [    21]: 21211
      0.00794 [     8]: 12022
      0.00635 [    20]: 21202
      0.00622 [    18]: 21112
ROOT  24:  E=   -2373.7645646083 Eh  1.290 eV  10405.0 cm**-1
      0.10315 [    13]: 12220
      0.08530 [    26]: 22111
      0.08291 [    21]: 21211
      0.08145 [    19]: 21121
      0.08040 [    12]: 12211
      0.07028 [     5]: 11122
      0.06601 [    18]: 21112
      0.06166 [     3]: 02221
      0.05362 [     4]: 10222
      0.04147 [     9]: 12112
      0.03824 [     6]: 11212
      0.02766 [     1]: 02122
      0.02603 [    23]: 22012
      0.02545 [    28]: 22201
      0.02499 [     2]: 02212
      0.02347 [     8]: 12022
      0.02092 [     7]: 11221
      0.01644 [    24]: 22021
      0.01546 [    22]: 21220
      0.01089 [    25]: 22102
      0.00932 [    14]: 20122
      0.00841 [    10]: 12121
      0.00659 [    29]: 22210
      0.00638 [    11]: 12202
      0.00366 [     0]: 01222
      0.00329 [    15]: 20212
ROOT  25:  E=   -2373.7641487677 Eh  1.301 eV  10496.3 cm**-1
      0.17659 [    10]: 12121
      0.17647 [     9]: 12112
      0.06844 [     7]: 11221
      0.05990 [    14]: 20122
      0.05624 [    15]: 20212
      0.05139 [    20]: 21202
      0.04647 [    28]: 22201
      0.04484 [    18]: 21112
      0.04413 [    12]: 12211
      0.04075 [    19]: 21121
      0.03789 [    21]: 21211
      0.03333 [     6]: 11212
      0.03086 [    26]: 22111
      0.02628 [    16]: 20221
      0.02393 [     5]: 11122
      0.01988 [    27]: 22120
      0.01845 [    24]: 22021
      0.01009 [     1]: 02122
      0.00848 [     0]: 01222
      0.00663 [    25]: 22102
      0.00383 [    13]: 12220
      0.00371 [    23]: 22012
      0.00276 [     4]: 10222
ROOT  26:  E=   -2373.7628870659 Eh  1.336 eV  10773.2 cm**-1
      0.13321 [    18]: 21112
      0.11768 [    12]: 12211
      0.08583 [     5]: 11122
      0.08506 [     3]: 02221
      0.08067 [     4]: 10222
      0.07885 [    26]: 22111
      0.07419 [    23]: 22012
      0.05861 [    19]: 21121
      0.05433 [     9]: 12112
      0.04825 [    29]: 22210
      0.04644 [    16]: 20221
      0.02124 [    25]: 22102
      0.02041 [    10]: 12121
      0.02026 [    27]: 22120
      0.01369 [     1]: 02122
      0.01259 [     8]: 12022
      0.01134 [    21]: 21211
      0.00790 [    28]: 22201
      0.00707 [    17]: 21022
      0.00575 [     7]: 11221
      0.00374 [    24]: 22021
      0.00343 [     6]: 11212
      0.00332 [    13]: 12220
      0.00263 [    11]: 12202
ROOT  27:  E=   -2373.7621058412 Eh  1.357 eV  10944.7 cm**-1
      0.12838 [    18]: 21112
      0.11714 [    13]: 12220
      0.08934 [    19]: 21121
      0.07709 [     6]: 11212
      0.07449 [     1]: 02122
      0.07337 [     7]: 11221
      0.05158 [    17]: 21022
      0.05047 [    11]: 12202
      0.04840 [    25]: 22102
      0.04334 [    10]: 12121
      0.04000 [    26]: 22111
      0.03814 [     5]: 11122
      0.03176 [     9]: 12112
      0.03026 [    27]: 22120
      0.01930 [    21]: 21211
      0.01566 [    12]: 12211
      0.01543 [    20]: 21202
      0.01511 [    28]: 22201
      0.01431 [     8]: 12022
      0.00671 [    16]: 20221
      0.00439 [    24]: 22021
      0.00421 [     4]: 10222
      0.00384 [     2]: 02212
      0.00270 [    15]: 20212
ROOT  28:  E=   -2373.7032264249 Eh  2.959 eV  23867.2 cm**-1
      0.18090 [    19]: 21121
      0.10021 [    12]: 12211
      0.08421 [     8]: 12022
      0.08416 [    24]: 22021
      0.07680 [    16]: 20221
      0.07398 [    15]: 20212
      0.07155 [     2]: 02212
      0.07112 [    18]: 21112
      0.04464 [    11]: 12202
      0.03689 [     9]: 12112
      0.02590 [    13]: 12220
      0.02412 [    27]: 22120
      0.02335 [     3]: 02221
      0.02050 [    20]: 21202
      0.01817 [     6]: 11212
      0.01308 [     1]: 02122
      0.01194 [    26]: 22111
      0.00936 [     0]: 01222
      0.00697 [     5]: 11122
      0.00560 [    17]: 21022
      0.00365 [    28]: 22201
      0.00337 [    10]: 12121
      0.00295 [    21]: 21211
ROOT  29:  E=   -2373.7030288570 Eh  2.965 eV  23910.6 cm**-1
      0.19030 [     9]: 12112
      0.11726 [     6]: 11212
      0.10426 [    19]: 21121
      0.08752 [    10]: 12121
      0.06789 [    16]: 20221
      0.06436 [    22]: 21220
      0.06039 [    24]: 22021
      0.04811 [    18]: 21112
      0.03321 [     4]: 10222
      0.03168 [    20]: 21202
      0.02575 [    21]: 21211
      0.02508 [     1]: 02122
      0.02468 [     5]: 11122
      0.02055 [    26]: 22111
      0.01985 [     7]: 11221
      0.01567 [    12]: 12211
      0.01273 [    27]: 22120
      0.01198 [    29]: 22210
      0.00987 [    28]: 22201
      0.00959 [    11]: 12202
      0.00707 [    15]: 20212
      0.00598 [    23]: 22012
ROOT  30:  E=   -2373.6976521603 Eh  3.111 eV  25090.6 cm**-1
      0.16342 [    21]: 21211
      0.10080 [    17]: 21022
      0.08112 [     9]: 12112
      0.06489 [     0]: 01222
      0.06168 [    11]: 12202
      0.05065 [     3]: 02221
      0.04948 [    10]: 12121
      0.04479 [     8]: 12022
      0.04370 [    23]: 22012
      0.04052 [    27]: 22120
      0.03822 [     7]: 11221
      0.03769 [    19]: 21121
      0.03256 [    28]: 22201
      0.02566 [     6]: 11212
      0.02163 [    22]: 21220
      0.01941 [    24]: 22021
      0.01923 [    12]: 12211
      0.01690 [     2]: 02212
      0.01669 [    20]: 21202
      0.01488 [    13]: 12220
      0.01041 [    29]: 22210
      0.00977 [     1]: 02122
      0.00796 [     5]: 11122
      0.00731 [    26]: 22111
      0.00640 [    14]: 20122
      0.00534 [    25]: 22102
      0.00444 [    16]: 20221
      0.00265 [     4]: 10222
ROOT  31:  E=   -2373.6971045885 Eh  3.126 eV  25210.8 cm**-1
      0.14683 [    12]: 12211
      0.12517 [     7]: 11221
      0.11198 [     6]: 11212
      0.09935 [    14]: 20122
      0.07454 [    26]: 22111
      0.07234 [    10]: 12121
      0.04570 [    20]: 21202
      0.04273 [    18]: 21112
      0.04224 [     5]: 11122
      0.03726 [    19]: 21121
      0.03418 [    25]: 22102
      0.02719 [    22]: 21220
      0.02557 [    13]: 12220
      0.02181 [    11]: 12202
      0.02150 [    28]: 22201
      0.01758 [     9]: 12112
      0.01460 [     2]: 02212
      0.01030 [    17]: 21022
      0.00444 [    21]: 21211
      0.00363 [    27]: 22120
      0.00323 [    24]: 22021
      0.00319 [     1]: 02122
      0.00272 [    16]: 20221
ROOT  32:  E=   -2373.6950321981 Eh  3.182 eV  25665.6 cm**-1
      0.09996 [    19]: 21121
      0.09040 [     6]: 11212
      0.08320 [    12]: 12211
      0.07816 [     7]: 11221
      0.07691 [    11]: 12202
      0.07193 [    26]: 22111
      0.06292 [    18]: 21112
      0.05692 [    10]: 12121
      0.05236 [    22]: 21220
      0.04825 [     2]: 02212
      0.03655 [    25]: 22102
      0.03539 [     3]: 02221
      0.03487 [    20]: 21202
      0.03240 [     1]: 02122
      0.02717 [     5]: 11122
      0.02621 [    21]: 21211
      0.01810 [    16]: 20221
      0.01431 [     4]: 10222
      0.01318 [    29]: 22210
      0.01075 [     9]: 12112
      0.00727 [    13]: 12220
      0.00610 [    17]: 21022
      0.00582 [    28]: 22201
      0.00507 [    24]: 22021
      0.00388 [     8]: 12022
ROOT  33:  E=   -2373.6927710530 Eh  3.244 eV  26161.9 cm**-1
      0.16817 [    12]: 12211
      0.16779 [    19]: 21121
      0.07737 [    10]: 12121
      0.07357 [     9]: 12112
      0.06322 [     6]: 11212
      0.05577 [    15]: 20212
      0.05027 [    21]: 21211
      0.04576 [    18]: 21112
      0.04329 [     2]: 02212
      0.03356 [    16]: 20221
      0.03254 [    27]: 22120
      0.03114 [     3]: 02221
      0.02495 [     5]: 11122
      0.02166 [    20]: 21202
      0.02145 [     7]: 11221
      0.01707 [    24]: 22021
      0.01592 [     1]: 02122
      0.01020 [    13]: 12220
      0.01012 [    28]: 22201
      0.00737 [     4]: 10222
      0.00717 [     8]: 12022
      0.00646 [    22]: 21220
      0.00391 [    26]: 22111
      0.00340 [    11]: 12202
      0.00317 [    29]: 22210
      0.00290 [     0]: 01222
ROOT  34:  E=   -2373.6926657543 Eh  3.247 eV  26185.0 cm**-1
      0.15246 [     6]: 11212
      0.08645 [    13]: 12220
      0.08423 [    14]: 20122
      0.07713 [     7]: 11221
      0.07247 [     2]: 02212
      0.07050 [    11]: 12202
      0.06830 [    27]: 22120
      0.06301 [    21]: 21211
      0.04906 [    17]: 21022
      0.04188 [    22]: 21220
      0.03993 [     9]: 12112
      0.03321 [    29]: 22210
      0.02658 [    24]: 22021
      0.02378 [    19]: 21121
      0.02126 [    12]: 12211
      0.01842 [    23]: 22012
      0.01560 [     3]: 02221
      0.01108 [    25]: 22102
      0.01095 [    18]: 21112
      0.00675 [    26]: 22111
      0.00629 [     1]: 02122
      0.00530 [     8]: 12022
      0.00317 [     5]: 11122
      0.00297 [    10]: 12121
      0.00281 [    20]: 21202
ROOT  35:  E=   -2373.5986719748 Eh  5.804 eV  46814.3 cm**-1
      0.15797 [    27]: 22120
      0.14907 [    14]: 20122
      0.13299 [     1]: 02122
      0.12134 [    11]: 12202
      0.12009 [    25]: 22102
      0.03373 [    20]: 21202
      0.03284 [     3]: 02221
      0.03095 [     7]: 11221
      0.02776 [     6]: 11212
      0.02221 [     8]: 12022
      0.02150 [    24]: 22021
      0.02032 [    18]: 21112
      0.01867 [     4]: 10222
      0.01589 [    19]: 21121
      0.01577 [    28]: 22201
      0.01378 [    12]: 12211
      0.01034 [    16]: 20221
      0.00913 [    21]: 21211
      0.00884 [    29]: 22210
      0.00786 [     2]: 02212
      0.00573 [     0]: 01222
      0.00567 [    23]: 22012
      0.00452 [    10]: 12121
      0.00354 [     5]: 11122
      0.00316 [    15]: 20212
      0.00263 [    22]: 21220
ROOT  36:  E=   -2373.5984147259 Eh  5.811 eV  46870.7 cm**-1
      0.15496 [    17]: 21022
      0.13590 [     2]: 02212
      0.11702 [    22]: 21220
      0.09288 [    20]: 21202
      0.07968 [    24]: 22021
      0.07037 [    23]: 22012
      0.04321 [    21]: 21211
      0.04085 [     3]: 02221
      0.02885 [    10]: 12121
      0.02749 [    11]: 12202
      0.02667 [    15]: 20212
      0.02269 [    13]: 12220
      0.02264 [     8]: 12022
      0.02262 [     9]: 12112
      0.02173 [     0]: 01222
      0.01798 [     1]: 02122
      0.01064 [    14]: 20122
      0.00947 [    26]: 22111
      0.00822 [    16]: 20221
      0.00811 [    29]: 22210
      0.00681 [     4]: 10222
      0.00654 [    27]: 22120
      0.00539 [    28]: 22201
      0.00487 [     5]: 11122
      0.00456 [    25]: 22102
      0.00395 [    12]: 12211
ROOT  37:  E=   -2373.5926847278 Eh  5.967 eV  48128.3 cm**-1
      0.16230 [    15]: 20212
      0.14822 [     2]: 02212
      0.11515 [    11]: 12202
      0.10705 [    13]: 12220
      0.09123 [    16]: 20221
      0.07841 [    29]: 22210
      0.05005 [    27]: 22120
      0.04381 [    23]: 22012
      0.04058 [     8]: 12022
      0.02796 [     4]: 10222
      0.01717 [     5]: 11122
      0.01519 [     6]: 11212
      0.01247 [    21]: 21211
      0.01228 [    14]: 20122
      0.01163 [    28]: 22201
      0.01046 [    12]: 12211
      0.00978 [    19]: 21121
      0.00848 [    24]: 22021
      0.00796 [    26]: 22111
      0.00742 [     7]: 11221
      0.00645 [     3]: 02221
      0.00530 [     9]: 12112
      0.00291 [    18]: 21112
ROOT  38:  E=   -2373.5765807438 Eh  6.405 eV  51662.7 cm**-1
      0.17712 [    16]: 20221
      0.12789 [    11]: 12202
      0.12421 [    24]: 22021
      0.07657 [     8]: 12022
      0.06304 [    13]: 12220
      0.06275 [     3]: 02221
      0.05393 [     4]: 10222
      0.04861 [    28]: 22201
      0.04610 [    19]: 21121
      0.04601 [    15]: 20212
      0.03682 [     5]: 11122
      0.02801 [     9]: 12112
      0.02287 [    10]: 12121
      0.01839 [    27]: 22120
      0.01163 [    18]: 21112
      0.01099 [    21]: 21211
      0.00821 [     6]: 11212
      0.00670 [    22]: 21220
      0.00648 [    12]: 12211
      0.00509 [     2]: 02212
      0.00509 [     7]: 11221
      0.00386 [    17]: 21022
      0.00306 [    26]: 22111
ROOT  39:  E=   -2373.5753110325 Eh  6.440 eV  51941.4 cm**-1
      0.17790 [    22]: 21220
      0.11655 [     2]: 02212
      0.10179 [    20]: 21202
      0.08072 [     0]: 01222
      0.06904 [    27]: 22120
      0.05722 [     3]: 02221
      0.05452 [    10]: 12121
      0.05256 [     1]: 02122
      0.04927 [    21]: 21211
      0.03581 [    17]: 21022
      0.02977 [    28]: 22201
      0.02824 [    29]: 22210
      0.02179 [     7]: 11221
      0.02007 [    14]: 20122
      0.01453 [    16]: 20221
      0.01340 [    25]: 22102
      0.01320 [    24]: 22021
      0.01267 [    13]: 12220
      0.01066 [    12]: 12211
      0.00943 [     9]: 12112
      0.00775 [    23]: 22012
      0.00756 [    11]: 12202
      0.00663 [    15]: 20212
      0.00557 [    19]: 21121

                 <<<<<<<<<<<<<<<<<<INITIAL CI STATE CHECK>>>>>>>>>>>>>>>>>>

   E(CAS)= -2373.803824142 Eh DE=    0.000000e+00
   --- Energy gap subspaces: Ext-Act = 1.681   Act-Int = 0.114
   --- current l-shift: Up(Ext-Act) = 1.00   Dn(Act-Int) = 1.89
   N(occ)=  1.40000 1.40000 1.40000 1.40000 1.40000
   ||g|| =     8.225798e-05 Max(G)=    2.013741e-05 Rot=282,0
   --- Orbital Update [   SuperCI]
   SUPERCI-ITER   0: DE=    -0.000000000 <r|r>=      0.000000000
   <Psi(SX)|Psi(SX)>=      1.000000000 DE(SX)=-0.000000000
   Largest coefficient in the normalized |SX> wavefunction= 0.000014068
   --- Forming Natural Orbitals

MACRO-ITERATION   2: 
   ===>>> Convergence to 3.0e-02 achieved - switching to Step=DIIS
   --- Inactive Energy E0 = -2350.60562874 Eh
CI-ITERATION   0: 
 -2373.894343721   0.000000000000 (    0.00)
 -2373.894154687   0.000000000000
 -2373.885748567   0.000000000000
 -2373.883968377   0.000000000000
 -2373.883506595   0.000000000000
 -2373.882683475   0.000000000000
 -2373.880499492   0.000000000000
 -2373.814492028   0.000000000000
 -2373.806064641   0.000000000000
 -2373.794460208   0.000000000000
   CI-PROBLEM SOLVED
   DENSITIES MADE
CI-ITERATION   0: 
 -2373.811973524   0.000000000000 (    0.00)
 -2373.811182629   0.000000000000
 -2373.811108646   0.000000000000
 -2373.810567570   0.000000000000
 -2373.808523624   0.000000000000
 -2373.806537750   0.000000000000
 -2373.806100188   0.000000000000
 -2373.800965722   0.000000000000
 -2373.800681666   0.000000000000
 -2373.790542404   0.000000000000
 -2373.789620358   0.000000000000
 -2373.789136954   0.000000000000
 -2373.785405695   0.000000000000
 -2373.783037180   0.000000000000
 -2373.781519200   0.000000000000
 -2373.781068994   0.000000000000
 -2373.778215727   0.000000000000
 -2373.776638785   0.000000000000
 -2373.775499231   0.000000000000
 -2373.775020282   0.000000000000
 -2373.773112069   0.000000000000
 -2373.770347503   0.000000000000
 -2373.767568248   0.000000000000
 -2373.765020330   0.000000000000
 -2373.764564563   0.000000000000
 -2373.764148749   0.000000000000
 -2373.762887055   0.000000000000
 -2373.762105788   0.000000000000
 -2373.703226485   0.000000000000
 -2373.703028865   0.000000000000
 -2373.697652206   0.000000000000
 -2373.697104561   0.000000000000
 -2373.695032195   0.000000000000
 -2373.692771053   0.000000000000
 -2373.692665756   0.000000000000
 -2373.598671930   0.000000000000
 -2373.598414808   0.000000000000
 -2373.592684792   0.000000000000
 -2373.576580687   0.000000000000
 -2373.575310995   0.000000000000
   CI-PROBLEM SOLVED
   DENSITIES MADE
   E(CAS)= -2373.803824149 Eh DE=   -6.949904e-09
   --- Energy gap subspaces: Ext-Act = 1.666   Act-Int = 0.106
   --- current l-shift: Up(Ext-Act) = 0.50   Dn(Act-Int) = 1.39
   N(occ)=  1.40000 1.40000 1.40000 1.40000 1.40000
   ||g|| =     5.566179e-05 Max(G)=   -1.135888e-05 Rot=62,23
                     ---- THE CAS-SCF ENERGY   HAS CONVERGED ----
                            --- FINALIZING ORBITALS ---
                    ---- DOING ONE FINAL ITERATION FOR PRINTING ----
   --- d-orbitals (depends on the molecular axis frame)
 L-Center:  0 Co [-0.004, -0.046, -2.397] 
   --- The active space contains 5 d Orbitals : OK
 Setting 39 active MO to AO dz2     (25)
 Setting 40 active MO to AO dxz     (26)
 Setting 41 active MO to AO dyz     (27)
 Setting 42 active MO to AO dx2y2   (28)
 Setting 43 active MO to AO dxy     (29)
   --- Canonicalize Internal Space
   --- Canonicalize External Space

MACRO-ITERATION   3: 
   --- Inactive Energy E0 = -2350.60562874 Eh
   --- All densities will be recomputed
CI-ITERATION   0: 
 -2373.894343714   0.000000000000 (    0.00)
 -2373.894154680   0.000000000000
 -2373.885748560   0.000000000000
 -2373.883968372   0.000000000000
 -2373.883506590   0.000000000000
 -2373.882683469   0.000000000000
 -2373.880499486   0.000000000000
 -2373.814492021   0.000000000000
 -2373.806064636   0.000000000000
 -2373.794460202   0.000000000000
   CI-PROBLEM SOLVED
   DENSITIES MADE
CI-ITERATION   0: 
 -2373.811973517   0.000000000000 (    0.00)
 -2373.811182622   0.000000000000
 -2373.811108638   0.000000000000
 -2373.810567561   0.000000000000
 -2373.808523617   0.000000000000
 -2373.806537743   0.000000000000
 -2373.806100181   0.000000000000
 -2373.800965716   0.000000000000
 -2373.800681660   0.000000000000
 -2373.790542398   0.000000000000
 -2373.789620351   0.000000000000
 -2373.789136946   0.000000000000
 -2373.785405688   0.000000000000
 -2373.783037173   0.000000000000
 -2373.781519194   0.000000000000
 -2373.781068988   0.000000000000
 -2373.778215720   0.000000000000
 -2373.776638779   0.000000000000
 -2373.775499224   0.000000000000
 -2373.775020276   0.000000000000
 -2373.773112063   0.000000000000
 -2373.770347497   0.000000000000
 -2373.767568242   0.000000000000
 -2373.765020324   0.000000000000
 -2373.764564558   0.000000000000
 -2373.764148743   0.000000000000
 -2373.762887049   0.000000000000
 -2373.762105782   0.000000000000
 -2373.703226479   0.000000000000
 -2373.703028859   0.000000000000
 -2373.697652200   0.000000000000
 -2373.697104555   0.000000000000
 -2373.695032189   0.000000000000
 -2373.692771047   0.000000000000
 -2373.692665750   0.000000000000
 -2373.598671924   0.000000000000
 -2373.598414802   0.000000000000
 -2373.592684785   0.000000000000
 -2373.576580682   0.000000000000
 -2373.575310989   0.000000000000
   CI-PROBLEM SOLVED
   DENSITIES MADE
   E(CAS)= -2373.803824143 Eh DE=    6.408300e-09
   --- Energy gap subspaces: Ext-Act = 0.474   Act-Int = -0.072
   --- current l-shift: Up(Ext-Act) = 0.86   Dn(Act-Int) = 1.41
   N(occ)=  1.40000 1.40000 1.40000 1.40000 1.40000
   ||g|| =     5.566183e-05 Max(G)=   -1.984393e-05 Rot=45,35
--------------
CASSCF RESULTS
--------------

Final CASSCF energy       : -2373.803824143 Eh  -64594.4860 eV

----------------
ORBITAL ENERGIES
----------------

  NO   OCC          E(Eh)            E(eV) 
   0   2.0000    -285.884972     -7779.3256 
   1   2.0000     -92.292335     -2511.4021 
   2   2.0000     -92.292316     -2511.4016 
   3   2.0000     -35.585018      -968.3176 
   4   2.0000     -30.358677      -826.1016 
   5   2.0000     -30.357801      -826.0778 
   6   2.0000     -30.355614      -826.0182 
   7   2.0000     -15.600604      -424.5140 
   8   2.0000     -15.600560      -424.5128 
   9   2.0000     -11.318609      -307.9950 
  10   2.0000     -11.318561      -307.9937 
  11   2.0000      -9.061486      -246.5756 
  12   2.0000      -9.061475      -246.5753 
  13   2.0000      -6.693690      -182.1446 
  14   2.0000      -6.693681      -182.1443 
  15   2.0000      -6.692136      -182.1023 
  16   2.0000      -6.692128      -182.1021 
  17   2.0000      -6.691452      -182.0837 
  18   2.0000      -6.691442      -182.0834 
  19   2.0000      -4.735443      -128.8580 
  20   2.0000      -3.144752       -85.5730 
  21   2.0000      -3.144277       -85.5601 
  22   2.0000      -3.142928       -85.5234 
  23   2.0000      -1.229807       -33.4648 
  24   2.0000      -1.229492       -33.4562 
  25   2.0000      -1.055517       -28.7221 
  26   2.0000      -1.047395       -28.5011 
  27   2.0000      -0.692811       -18.8524 
  28   2.0000      -0.677704       -18.4413 
  29   2.0000      -0.580895       -15.8070 
  30   2.0000      -0.565555       -15.3895 
  31   2.0000      -0.560784       -15.2597 
  32   2.0000      -0.545990       -14.8571 
  33   2.0000      -0.538350       -14.6493 
  34   2.0000      -0.536257       -14.5923 
  35   2.0000      -0.454998       -12.3811 
  36   2.0000      -0.419142       -11.4054 
  37   2.0000      -0.417540       -11.3618 
  38   2.0000      -0.407521       -11.0892 
  39   1.4000      -0.471932       -12.8419 
  40   1.4000      -0.473102       -12.8738 
  41   1.4000      -0.479941       -13.0599 
  42   1.4000      -0.450096       -12.2477 
  43   1.4000      -0.454815       -12.3762 
  44   0.0000       0.024233         0.6594 
  45   0.0000       0.050660         1.3785 
  46   0.0000       0.073234         1.9928 
  47   0.0000       0.135783         3.6948 
  48   0.0000       0.145485         3.9588 
  49   0.0000       0.155567         4.2332 
  50   0.0000       0.168676         4.5899 
  51   0.0000       0.169033         4.5996 
  52   0.0000       0.169946         4.6245 
  53   0.0000       0.193048         5.2531 
  54   0.0000       0.198949         5.4137 
  55   0.0000       0.260275         7.0825 
[...]
 3 106   44466.3    224.9   0.00000   0.00000   0.00000   0.00000000000181   0.86695   0.12846   0.00459
 3 107   44466.3    224.9   0.00000   0.00070   0.00000   0.00000000005003   0.05207   0.94772   0.00021
 3 108   44740.1    223.5   0.00000   0.00000   0.00000   0.00000000006308   0.99907   0.00015   0.00078
 3 109   44740.1    223.5   0.00000   0.00000   0.00000   0.00000000002946   0.99617   0.00336   0.00047
 3 110   65196.9    153.4   0.00000   0.00000   0.00000   0.00000000000743   0.97562   0.02140   0.00299
 3 111   65196.9    153.4   0.00000   0.00001   0.00000   0.00000000000926   0.90521   0.09311   0.00168
 3 112   65313.2    153.1   0.00000   0.00000   0.00000   0.00000000001760   0.99682   0.00002   0.00317
 3 113   65313.2    153.1   0.00000   0.00000   0.00000   0.00000000000596   0.95715   0.03936   0.00349
 3 114   66581.0    150.2   0.00000   0.00000   0.00000   0.00000000003859   0.99591   0.00081   0.00328
 3 115   66581.0    150.2   0.00000   0.00000   0.00000   0.00000000007264   0.99725   0.00130   0.00145
 3 116   69965.1    142.9   0.00000   0.00000   0.00000   0.00000000010061   0.99760   0.00077   0.00164
 3 117   69965.1    142.9   0.00000   0.00000   0.00000   0.00000000003480   0.99257   0.00030   0.00713
 3 118   70491.0    141.9   0.00000   0.00003   0.00000   0.00000000000925   0.80465   0.19074   0.00461
 3 119   70491.0    141.9   0.00000   0.00000   0.00000   0.00000000000275   0.95627   0.02881   0.01492

Done

                 =============================
                 AB INITIO LIGAND FIELD THEORY
                       d7 configuration
                          2 CI blocks
                         MOs 39 to 43
                 =============================

Metal/Atom center is atom 0
orbital phases =   1.0   1.0   1.0   1.0   1.0 
Metal/Atom d-orbital parts of active orbitals
Shell 15
             39        40        41        42        43
dz2     :  0.608696  0.000003 -0.000001 -0.000860 -0.000035
dxz     : -0.000113  0.612905  0.000008 -0.000007 -0.000046
dyz     : -0.000030 -0.000105  0.615278  0.000003 -0.000009
dx2y2   :  0.022329  0.000212  0.000052  0.597470 -0.000043
dxy     :  0.000868  0.000015  0.000017 -0.001256  0.613875
Shell 16
             39        40        41        42        43
dz2     :  0.407455  0.000010  0.000003  0.000240  0.000010
dxz     : -0.000067  0.408152 -0.000041 -0.000003 -0.000010
dyz     : -0.000023 -0.000117  0.412237 -0.000001  0.000005
dx2y2   :  0.015494  0.000141  0.000023  0.398766  0.000048
dxy     :  0.000603  0.000029  0.000022 -0.000760  0.407796
Shell 17
             39        40        41        42        43
dz2     :  0.215820 -0.000026 -0.000001 -0.001777 -0.000070
dxz     : -0.000070  0.223350  0.000139  0.000001  0.000192
dyz     :  0.000016  0.000098  0.217320 -0.000031  0.000012
dx2y2   :  0.007807  0.000089  0.000035  0.212038  0.000173
dxy     :  0.000305  0.000217  0.000024 -0.000253  0.213122
Shell 20
             39        40        41        42        43
dz2     :  0.004454 -0.000060 -0.000031  0.014091  0.000566
dxz     : -0.000058  0.007226 -0.000117  0.000125  0.000180
dyz     : -0.000007 -0.000119  0.013310 -0.000038  0.000043
dx2y2   :  0.015256  0.000145  0.000008 -0.013507 -0.000491
dxy     :  0.000595  0.000177  0.000044 -0.000474 -0.001301

Adjusting phases of one-electron integrals               ... done
Adjusting phases of two-electron integrals               ... done


-----------------------------------------------------------------
Computing F0s from 2-electron integrals                  ... done 
-----------------------------------------------------------------
F0   =  0.882888346 a.u. =    24.025 eV =  193771.6 cm**-1
-----------------------------------------------------------------

Preparing for fit                                        ... done
Making fit matrices                                      ... done
Calculating ab initio Hamiltonian matrices               ... 
Calculating fit matrices                                 ... done
Fitting                                                  ... done

------------------------------
AILFT MATRIX ELEMENTS (CASSCF)
--------------------------------

Ligand field one-electron matrix VLFT (a.u.) : 
Orbital          dz2        dxz        dyz        dx2-y2     dxy
  dz2         -5.902747   0.000027  -0.000025  -0.008049  -0.000318 
  dxz          0.000027  -5.902817   0.000076  -0.000077  -0.000294 
  dyz         -0.000025   0.000076  -5.906502   0.000055  -0.000061 
  dx2-y2      -0.008049  -0.000077   0.000055  -5.889102  -0.000035 
  dxy         -0.000318  -0.000294  -0.000061  -0.000035  -5.888123 

-------------------------------------------------
Slater-Condon Parameters (electronic repulsion) : 
-------------------------------------------------
F0dd(from 2el Ints)     =  0.882888346 a.u. =    24.025 eV =  193771.6 cm**-1 (fixed)
F2dd                    =  0.399541934 a.u. =    10.872 eV =   87689.3 cm**-1
F4dd                    =  0.252145960 a.u. =     6.861 eV =   55339.6 cm**-1
-------------------
Racah Parameters : 
-------------------
A(F0dd from 2el Ints)   =  0.854872128 a.u. =    23.262 eV =  187622.7 cm**-1
B                       =  0.005295119 a.u. =     0.144 eV =    1162.1 cm**-1
C                       =  0.020011584 a.u. =     0.545 eV =    4392.0 cm**-1
C/B                     =  3.779
-------------------------------------------------------------------------------

-----------------------------------------
The ligand field one electron eigenfunctions:
-----------------------------------------
Orbital    Energy (eV)  Energy(cm-1)      dz2        dxz        dyz        dx2-y2     dxy
    1          0.000        0.0         0.026861  -0.020206   0.999387   0.009177   0.003454 
    2          0.001        5.0        -0.906861  -0.004151   0.028205  -0.420142  -0.016478 
    3          0.100      808.2         0.005432  -0.999578  -0.020265  -0.002428  -0.019949 
    4          0.500     4035.8         0.000847  -0.019761  -0.003498  -0.041046   0.998955 
    5          0.575     4638.6         0.420538   0.005291  -0.002742  -0.906480  -0.037508 
Ligand field orbitals were stored in rho.casscf.lft.gbw

Calculating ligand field Hamiltonian matrices          ... done
Diagonalizing and fitting the ligand field Hamiltonian ... done
Calculating statistical parameters                     ... done

Reference energy AI-LFT =    -23.289619608 au
Reference energy AI     =    -23.288714969 au

------------------------------------------------
COMPARISON OF AB INITIO AND LIGAND FIELD RESULTS
------------------------------------------------

Block   1
---------
   AI-Root   0: E(AI)=    0.000 eV -> LF-Root   0:     0.000 eV    S= 0.996 Delta=    0.000 eV
   AI-Root   1: E(AI)=    0.005 eV -> LF-Root   1:     0.001 eV    S= 0.996 Delta=    0.004 eV
   AI-Root   2: E(AI)=    0.234 eV -> LF-Root   2:     0.229 eV    S= 0.944 Delta=    0.005 eV
   AI-Root   3: E(AI)=    0.282 eV -> LF-Root   3:     0.361 eV    S= 0.993 Delta=   -0.079 eV
   AI-Root   4: E(AI)=    0.295 eV -> LF-Root   4:     0.361 eV    S= 0.937 Delta=   -0.066 eV
   AI-Root   5: E(AI)=    0.317 eV -> LF-Root   5:     0.334 eV    S= 1.000 Delta=   -0.017 eV
   AI-Root   6: E(AI)=    0.377 eV -> LF-Root   6:     0.384 eV    S= 0.999 Delta=   -0.007 eV
   AI-Root   7: E(AI)=    2.173 eV -> LF-Root   7:     2.103 eV    S= 1.000 Delta=    0.070 eV
   AI-Root   8: E(AI)=    2.402 eV -> LF-Root   8:     2.459 eV    S= 1.000 Delta=   -0.057 eV
   AI-Root   9: E(AI)=    2.718 eV -> LF-Root   9:     2.808 eV    S= 0.999 Delta=   -0.090 eV
   (Dropping RMS error for the reference energy)
   RMS error for this block =     0.055 eV =     443.9 cm**-1 

Block   2
---------
   AI-Root   0: E(AI)=    2.241 eV -> LF-Root   0:     2.285 eV    S= 0.979 Delta=   -0.043 eV
   AI-Root   1: E(AI)=    2.263 eV -> LF-Root   1:     2.287 eV    S= 0.966 Delta=   -0.024 eV
   AI-Root   2: E(AI)=    2.265 eV -> LF-Root   2:     2.326 eV    S= 0.979 Delta=   -0.061 eV
   AI-Root   3: E(AI)=    2.280 eV -> LF-Root   3:     2.324 eV    S= 0.999 Delta=   -0.044 eV
   AI-Root   4: E(AI)=    2.335 eV -> LF-Root   4:     2.360 eV    S= 0.966 Delta=   -0.025 eV
   AI-Root   5: E(AI)=    2.389 eV -> LF-Root   5:     2.443 eV    S= 0.978 Delta=   -0.053 eV
   AI-Root   6: E(AI)=    2.401 eV -> LF-Root   6:     2.450 eV    S= 0.979 Delta=   -0.049 eV
   AI-Root   7: E(AI)=    2.541 eV -> LF-Root   7:     2.557 eV    S= 0.997 Delta=   -0.017 eV
   AI-Root   8: E(AI)=    2.549 eV -> LF-Root   8:     2.563 eV    S= 0.997 Delta=   -0.014 eV
   AI-Root   9: E(AI)=    2.825 eV -> LF-Root   9:     2.871 eV    S= 0.982 Delta=   -0.046 eV
   AI-Root  10: E(AI)=    2.850 eV -> LF-Root  10:     2.876 eV    S= 0.974 Delta=   -0.026 eV
   AI-Root  11: E(AI)=    2.863 eV -> LF-Root  11:     2.905 eV    S= 0.999 Delta=   -0.042 eV
   AI-Root  12: E(AI)=    2.964 eV -> LF-Root  12:     2.985 eV    S= 0.974 Delta=   -0.020 eV
   AI-Root  13: E(AI)=    3.029 eV -> LF-Root  13:     3.046 eV    S= 0.978 Delta=   -0.017 eV
   AI-Root  14: E(AI)=    3.070 eV -> LF-Root  14:     3.070 eV    S= 0.986 Delta=    0.000 eV
   AI-Root  15: E(AI)=    3.082 eV -> LF-Root  15:     3.081 eV    S= 0.993 Delta=    0.001 eV
   AI-Root  16: E(AI)=    3.160 eV -> LF-Root  16:     3.199 eV    S= 0.993 Delta=   -0.039 eV
   AI-Root  17: E(AI)=    3.203 eV -> LF-Root  17:     3.189 eV    S= 0.997 Delta=    0.013 eV
   AI-Root  18: E(AI)=    3.234 eV -> LF-Root  18:     3.263 eV    S= 0.979 Delta=   -0.029 eV
   AI-Root  19: E(AI)=    3.247 eV -> LF-Root  19:     3.252 eV    S= 0.986 Delta=   -0.005 eV
   AI-Root  20: E(AI)=    3.299 eV -> LF-Root  20:     3.306 eV    S= 0.991 Delta=   -0.007 eV
   AI-Root  21: E(AI)=    3.374 eV -> LF-Root  21:     3.382 eV    S= 0.992 Delta=   -0.007 eV
   AI-Root  22: E(AI)=    3.450 eV -> LF-Root  22:     3.460 eV    S= 0.995 Delta=   -0.010 eV
   AI-Root  23: E(AI)=    3.519 eV -> LF-Root  23:     3.550 eV    S= 0.863 Delta=   -0.031 eV
   AI-Root  24: E(AI)=    3.531 eV -> LF-Root  24:     3.588 eV    S= 0.998 Delta=   -0.056 eV
   AI-Root  25: E(AI)=    3.543 eV -> LF-Root  25:     3.590 eV    S= 0.864 Delta=   -0.047 eV
   AI-Root  26: E(AI)=    3.577 eV -> LF-Root  26:     3.632 eV    S= 0.998 Delta=   -0.055 eV
   AI-Root  27: E(AI)=    3.598 eV -> LF-Root  27:     3.572 eV    S= 0.997 Delta=    0.026 eV
   AI-Root  28: E(AI)=    5.201 eV -> LF-Root  28:     5.234 eV    S= 0.999 Delta=   -0.033 eV
   AI-Root  29: E(AI)=    5.206 eV -> LF-Root  29:     5.237 eV    S= 0.999 Delta=   -0.031 eV
   AI-Root  30: E(AI)=    5.352 eV -> LF-Root  30:     5.388 eV    S= 0.999 Delta=   -0.036 eV
   AI-Root  31: E(AI)=    5.367 eV -> LF-Root  31:     5.395 eV    S= 1.000 Delta=   -0.028 eV
   AI-Root  32: E(AI)=    5.424 eV -> LF-Root  32:     5.458 eV    S= 0.999 Delta=   -0.034 eV
   AI-Root  33: E(AI)=    5.485 eV -> LF-Root  33:     5.520 eV    S= 1.000 Delta=   -0.035 eV
   AI-Root  34: E(AI)=    5.488 eV -> LF-Root  34:     5.524 eV    S= 0.999 Delta=   -0.036 eV
   AI-Root  35: E(AI)=    8.046 eV -> LF-Root  35:     7.996 eV    S= 0.999 Delta=    0.050 eV
   AI-Root  36: E(AI)=    8.053 eV -> LF-Root  36:     8.074 eV    S= 0.999 Delta=   -0.021 eV
   AI-Root  37: E(AI)=    8.209 eV -> LF-Root  37:     8.288 eV    S= 1.000 Delta=   -0.080 eV
   AI-Root  38: E(AI)=    8.647 eV -> LF-Root  38:     8.637 eV    S= 1.000 Delta=    0.010 eV
   AI-Root  39: E(AI)=    8.681 eV -> LF-Root  39:     8.669 eV    S= 0.999 Delta=    0.012 eV
   RMS error for this block =     0.035 eV =     285.2 cm**-1 

Total RMS error g=     0.040 eV =     320.3 cm**-1
Note: Dropped RMS error for the reference energy.

Confidence intervals (95%) computed from the square root of the
diagonal elements of the covariance matrix:
H(dz2   ,dz2   )=  0.000249374 a.u. =     0.007 eV =      54.7 cm**-1
H(dxz   ,dz2   )=  0.000210974 a.u. =     0.006 eV =      46.3 cm**-1
H(dxz   ,dxz   )=  0.000249374 a.u. =     0.007 eV =      54.7 cm**-1
H(dyz   ,dz2   )=  0.000210974 a.u. =     0.006 eV =      46.3 cm**-1
H(dyz   ,dxz   )=  0.000210974 a.u. =     0.006 eV =      46.3 cm**-1
H(dyz   ,dyz   )=  0.000249374 a.u. =     0.007 eV =      54.7 cm**-1
H(dx2-y2,dz2   )=  0.000210974 a.u. =     0.006 eV =      46.3 cm**-1
H(dx2-y2,dxz   )=  0.000210974 a.u. =     0.006 eV =      46.3 cm**-1
H(dx2-y2,dyz   )=  0.000210974 a.u. =     0.006 eV =      46.3 cm**-1
H(dx2-y2,dx2-y2)=  0.000249374 a.u. =     0.007 eV =      54.7 cm**-1
H(dxy   ,dz2   )=  0.000210974 a.u. =     0.006 eV =      46.3 cm**-1
H(dxy   ,dxz   )=  0.000210974 a.u. =     0.006 eV =      46.3 cm**-1
H(dxy   ,dyz   )=  0.000210974 a.u. =     0.006 eV =      46.3 cm**-1
H(dxy   ,dx2-y2)=  0.000210974 a.u. =     0.006 eV =      46.3 cm**-1
H(dxy   ,dxy   )=  0.000249374 a.u. =     0.007 eV =      54.7 cm**-1
F2dd            =  0.000895548 a.u. =     0.024 eV =     196.5 cm**-1
F4dd            =  0.001298862 a.u. =     0.035 eV =     285.1 cm**-1
Pearson's correlation coefficient =    1.000 (should be close to 1)

----------------------------------------------
SPIN ORBIT COUPLING (based on CASSCF orbitals)
----------------------------------------------

AI-SOC-X integrals (cm-1)
                  0          1          2          3          4    
      0       0.000000  -0.905050 903.537476   0.028163  -0.134758
      1       0.905050  -0.000000   0.185488  -1.165659 516.669101
      2     -903.537476  -0.185488   0.000000 -500.037419   0.169365
      3      -0.028163   1.165659 500.037419  -0.000000   0.013514
      4       0.134758 -516.669101  -0.169365  -0.013514   0.000000
AI-SOC-Y integrals (cm-1)
                  0          1          2          3          4    
      0      -0.000000 -861.368069   0.743028   0.093357   0.026591
      1     861.368069  -0.000000  -0.031315 -497.646431   0.266046
      2      -0.743028   0.031315  -0.000000   1.115788 -515.327035
      3      -0.093357 497.646431  -1.115788   0.000000   0.062525
      4      -0.026591  -0.266046 515.327035  -0.062525   0.000000
AI-SOC-Z integrals (cm-1)
                  0          1          2          3          4    
      0       0.000000   0.025994   0.110978   1.679551 -42.116469
      1      -0.025994  -0.000000 -514.799335   0.132781  -0.407180
      2      -0.110978 514.799335   0.000000   0.048041  -0.125338
      3      -1.679551  -0.132781  -0.048041   0.000000 -992.479719
      4      42.116469   0.407180   0.125338 992.479719  -0.000000

Fit to the SOC matrix elements
a = 15.000000
b =     0.941 eV =    7586.3 cm**-1
SOC constant zeta =     0.063 eV =     505.8 cm**-1


LF-SOC-X integrals (cm-1)
                  0          1          2          3          4    
      0       0.000000  -0.000000 875.995646  -0.000000  -0.000000
      1       0.000000   0.000000  -0.000000  -0.000000 505.756322
      2     -875.995646   0.000000   0.000000 -505.756322  -0.000000
      3       0.000000   0.000000 505.756322   0.000000  -0.000000
      4       0.000000 -505.756322   0.000000   0.000000   0.000000
LF-SOC-Y integrals (cm-1)
                  0          1          2          3          4    
      0       0.000000 -875.995646  -0.000000  -0.000000  -0.000000
      1     875.995646   0.000000  -0.000000 -505.756322  -0.000000
      2       0.000000   0.000000   0.000000  -0.000000 -505.756322
      3       0.000000 505.756322   0.000000   0.000000  -0.000000
      4       0.000000   0.000000 505.756322   0.000000   0.000000
LF-SOC-Z integrals (cm-1)
                  0          1          2          3          4    
      0       0.000000  -0.000000  -0.000000  -0.000000  -0.000000
      1       0.000000   0.000000 -505.756322  -0.000000  -0.000000
      2       0.000000 505.756322   0.000000  -0.000000  -0.000000
      3       0.000000   0.000000   0.000000   0.000000 -1011.512644
      4       0.000000   0.000000   0.000000 1011.512644   0.000000

RMS error of nonzero matrix elements =   12.6 cm**-1


-----SOC-CONSTANTS-----
---All Values in cm-1---
ZETA_D = 505.76 
------------------------




---AILFT COMPLETED SUCCESFULLY!---

--------------
CASSCF TIMINGS
--------------

Total time                       ...       25.0 sec
Sum of individual times          ...       24.5 sec ( 98.0%)

Calculation of AO operators
   F(Core) operator              ...        6.0 sec ( 23.9%)
   G(Act) operator               ...        4.8 sec ( 19.2%)
   J(AO) operators               ...        0.0 sec (  0.0%)
Calculation of MO transformed quantities
   J(MO) operators               ...        0.8 sec (  3.4%)
   (pq|rs) integrals             ...        0.0 sec (  0.0%)
   AO->MO one electron integrals ...        0.0 sec (  0.1%)
Configuration interaction steps
   CI-setup phase                ...        0.0 sec (  0.0%)
   CI-solution phase             ...        0.1 sec (  0.4%)
   Generation of densities       ...        0.0 sec (  0.1%)
Orbital improvement steps
   Orbital gradient              ...        0.0 sec (  0.0%)
   O(1) converger                ...        0.0 sec (  0.1%)
Properties                       ...        8.1 sec ( 32.6%)
   SOC integral calculation      ...        4.5 sec ( 17.9%)
   SSC RMEs (incl. integrals)    ...        0.0 sec (  0.0%)
   SOC RMEs                      ...        0.1 sec (  0.2%)

Maximum memory used throughout the entire CASSCF-calculation: 314.8 MB

-------------------------   --------------------
FINAL SINGLE POINT ENERGY     -2373.803824142750
-------------------------   --------------------


                            ***************************************
                            *     ORCA property calculations      *
                            ***************************************

                                    ---------------------
                                    Active property flags
                                    ---------------------
   (+) Dipole Moment


------------------------------------------------------------------------------
                       ORCA ELECTRIC PROPERTIES CALCULATION
------------------------------------------------------------------------------

Dipole Moment Calculation                       ... on
Quadrupole Moment Calculation                   ... off
Polarizability Calculation                      ... off
GBWName                                         ... rho.gbw
Electron density                                ... rho.scfp
The origin for moment calculation is the CENTER OF MASS  = (-0.001909, -0.022276 -1.134998)

-------------
DIPOLE MOMENT
-------------
                                X             Y             Z
Electronic contribution:     -0.01002      -0.11472      -5.98656
Nuclear contribution   :      0.00559       0.05951       3.13980
                        -----------------------------------------
Total Dipole Moment    :     -0.00443      -0.05521      -2.84676
                        -----------------------------------------
Magnitude (a.u.)       :      2.84730
Magnitude (Debye)      :      7.23726



--------------------
Rotational spectrum 
--------------------
 
Rotational constants in cm-1:     0.080571     0.027601     0.020558 
Rotational constants in MHz :  2415.459314   827.456368   616.324185 

 Dipole components along the rotational axes: 
x,y,z [a.u.] :     0.003713     2.847297     0.001058 
x,y,z [Debye]:     0.009437     7.237254     0.002689 

 

Timings for individual modules:

Sum of individual times         ...       35.346 sec (=   0.589 min)
GTO integral calculation        ...        3.226 sec (=   0.054 min)   9.1 %
Relativistic integrals          ...        1.348 sec (=   0.022 min)   3.8 %
SCF iterations                  ...        1.543 sec (=   0.026 min)   4.4 %
CASSCF iterations               ...       29.229 sec (=   0.487 min)  82.7 %
                             ****ORCA TERMINATED NORMALLY****
TOTAL RUN TIME: 0 days 0 hours 0 minutes 38 seconds 114 msec
