
                                 *****************
                                 * O   R   C   A *
                                 *****************

                                            #,                                       
                                            ###                                      
                                            ####                                     
                                            #####                                    
                                            ######                                   
                                           ########,                                 
                                     ,,################,,,,,                         
                               ,,#################################,,                 
                          ,,##########################################,,             
                       ,#########################################, ''#####,          
                    ,#############################################,,   '####,        
                  ,##################################################,,,,####,       
                ,###########''''           ''''###############################       
              ,#####''   ,,,,##########,,,,          '''####'''          '####       
            ,##' ,,,,###########################,,,                        '##       
           ' ,,###''''                  '''############,,,                           
         ,,##''                                '''############,,,,        ,,,,,,###''
      ,#''                                            '''#######################'''  
     '                                                          ''''####''''         
             ,#######,   #######,   ,#######,      ##                                
            ,#'     '#,  ##    ##  ,#'     '#,    #''#        ######   ,####,        
            ##       ##  ##   ,#'  ##            #'  '#       #        #'  '#        
            ##       ##  #######   ##           ,######,      #####,   #    #        
            '#,     ,#'  ##    ##  '#,     ,#' ,#      #,         ##   #,  ,#        
             '#######'   ##     ##  '#######'  #'      '#     #####' # '####'        



                  #######################################################
                  #                        -***-                        #
                  #          Department of theory and spectroscopy      #
                  #    Directorship and core code : Frank Neese         #
                  #        Max Planck Institute fuer Kohlenforschung    #
                  #                Kaiser Wilhelm Platz 1               #
                  #                 D-45470 Muelheim/Ruhr               #
                  #                      Germany                        #
                  #                                                     #
                  #                  All rights reserved                #
                  #                        -***-                        #
                  #######################################################


                         Program Version 5.0.4 -  RELEASE  -


 With contributions from (in alphabetic order):
   Daniel Aravena         : Magnetic Suceptibility
   Michael Atanasov       : Ab Initio Ligand Field Theory (pilot matlab implementation)
   Alexander A. Auer      : GIAO ZORA, VPT2 properties, NMR spectrum
   Ute Becker             : Parallelization
   Giovanni Bistoni       : ED, misc. LED, open-shell LED, HFLD
   Martin Brehm           : Molecular dynamics
   Dmytro Bykov           : SCF Hessian
   Vijay G. Chilkuri      : MRCI spin determinant printing, contributions to CSF-ICE
   Dipayan Datta          : RHF DLPNO-CCSD density
   Achintya Kumar Dutta   : EOM-CC, STEOM-CC
   Dmitry Ganyushin       : Spin-Orbit,Spin-Spin,Magnetic field MRCI
   Miquel Garcia          : C-PCM and meta-GGA Hessian, CC/C-PCM, Gaussian charge scheme
   Yang Guo               : DLPNO-NEVPT2, F12-NEVPT2, CIM, IAO-localization
   Andreas Hansen         : Spin unrestricted coupled pair/coupled cluster methods
   Benjamin Helmich-Paris : MC-RPA, TRAH-SCF, COSX integrals
   Lee Huntington         : MR-EOM, pCC
   Robert Izsak           : Overlap fitted RIJCOSX, COSX-SCS-MP3, EOM
   Marcus Kettner         : VPT2
   Christian Kollmar      : KDIIS, OOCD, Brueckner-CCSD(T), CCSD density, CASPT2, CASPT2-K
   Simone Kossmann        : Meta GGA functionals, TD-DFT gradient, OOMP2, MP2 Hessian
   Martin Krupicka        : Initial AUTO-CI
   Lucas Lang             : DCDCAS
   Marvin Lechner         : AUTO-CI (C++ implementation), FIC-MRCC
   Dagmar Lenk            : GEPOL surface, SMD
   Dimitrios Liakos       : Extrapolation schemes; Compound Job, initial MDCI parallelization
   Dimitrios Manganas     : Further ROCIS development; embedding schemes
   Dimitrios Pantazis     : SARC Basis sets
   Anastasios Papadopoulos: AUTO-CI, single reference methods and gradients
   Taras Petrenko         : DFT Hessian,TD-DFT gradient, ASA, ECA, R-Raman, ABS, FL, XAS/XES, NRVS
   Peter Pinski           : DLPNO-MP2, DLPNO-MP2 Gradient
   Christoph Reimann      : Effective Core Potentials
   Marius Retegan         : Local ZFS, SOC
   Christoph Riplinger    : Optimizer, TS searches, QM/MM, DLPNO-CCSD(T), (RO)-DLPNO pert. Triples
   Tobias Risthaus        : Range-separated hybrids, TD-DFT gradient, RPA, STAB
   Michael Roemelt        : Original ROCIS implementation
   Masaaki Saitow         : Open-shell DLPNO-CCSD energy and density
   Barbara Sandhoefer     : DKH picture change effects
   Avijit Sen             : IP-ROCIS
   Kantharuban Sivalingam : CASSCF convergence, NEVPT2, FIC-MRCI
   Bernardo de Souza      : ESD, SOC TD-DFT
   Georgi Stoychev        : AutoAux, RI-MP2 NMR, DLPNO-MP2 response
   Willem Van den Heuvel  : Paramagnetic NMR
   Boris Wezisla          : Elementary symmetry handling
   Frank Wennmohs         : Technical directorship


 We gratefully acknowledge several colleagues who have allowed us to
 interface, adapt or use parts of their codes:
   Stefan Grimme, W. Hujo, H. Kruse, P. Pracht,  : VdW corrections, initial TS optimization,
                  C. Bannwarth, S. Ehlert          DFT functionals, gCP, sTDA/sTD-DF
   Ed Valeev, F. Pavosevic, A. Kumar             : LibInt (2-el integral package), F12 methods
   Garnet Chan, S. Sharma, J. Yang, R. Olivares  : DMRG
   Ulf Ekstrom                                   : XCFun DFT Library
   Mihaly Kallay                                 : mrcc  (arbitrary order and MRCC methods)
   Jiri Pittner, Ondrej Demel                    : Mk-CCSD
   Frank Weinhold                                : gennbo (NPA and NBO analysis)
   Christopher J. Cramer and Donald G. Truhlar   : smd solvation model
   Lars Goerigk                                  : TD-DFT with DH, B97 family of functionals
   V. Asgeirsson, H. Jonsson                     : NEB implementation
   FAccTs GmbH                                   : IRC, NEB, NEB-TS, DLPNO-Multilevel, CI-OPT
                                                   MM, QMMM, 2- and 3-layer-ONIOM, Crystal-QMMM,
                                                   LR-CPCM, SF, NACMEs, symmetry and pop. for TD-DFT,
                                                   nearIR, NL-DFT gradient (VV10), updates on ESD,
                                                   ML-optimized integration grids
   S Lehtola, MJT Oliveira, MAL Marques          : LibXC Library
   Liviu Ungur et al                             : ANISO software


 Your calculation uses the libint2 library for the computation of 2-el integrals
 For citations please refer to: http://libint.valeyev.net

 Your ORCA version has been built with support for libXC version: 5.1.0
 For citations please refer to: https://tddft.org/programs/libxc/

 This ORCA versions uses:
   CBLAS   interface :  Fast vector & matrix operations
   LAPACKE interface :  Fast linear algebra routines
   SCALAPACK package :  Parallel linear algebra routines
   Shared memory     :  Shared parallel matrices
   BLAS/LAPACK       :  OpenBLAS 0.3.15  USE64BITINT DYNAMIC_ARCH NO_AFFINITY Zen SINGLE_THREADED
        Core in use  :  Zen
   Copyright (c) 2011-2014, The OpenBLAS Project




***************************************
The coordinates will be read from file: geo.xyz
***************************************


================================================================================

----- Orbital basis set information -----
Your calculation utilizes the basis: DKH-def2-TZVPP
   Exponents from def2-TZVPP [F. Weigend and R. Ahlrichs, Phys. Chem. Chem. Phys. 7, 3297 (2005)],
   recontracted for DKH2 by D. A. Pantazis.

----- AuxJ basis set information -----
Your calculation utilizes the AutoAux generation procedure.
  G. L. Stoychev, A. A. Auer, F. Neese, J. Chem. Theory Comput. 13, 554 (2017)

----- AuxC basis set information -----
Your calculation utilizes the AutoAux generation procedure.
  G. L. Stoychev, A. A. Auer, F. Neese, J. Chem. Theory Comput. 13, 554 (2017)

----- AuxJK basis set information -----
Your calculation utilizes the AutoAux generation procedure.
  G. L. Stoychev, A. A. Auer, F. Neese, J. Chem. Theory Comput. 13, 554 (2017)

================================================================================
                                        WARNINGS
                       Please study these warnings very carefully!
================================================================================


INFO   : the flag for use of the SHARK integral package has been found!

================================================================================
                                       INPUT FILE
================================================================================
NAME = rho.inp
|  1> !CASSCF  DKH DKH-def2-TZVPP  RIJCOSX NoSFitting VeryTightSCF autoaux moread SlowConv
|  2> %moinp "orb.gbw"
|  3> %pal
|  4> nprocs 40
|  5> end
|  6> %maxcore 4000
|  7> # swap
|  8> #
|  9> %rel
| 10>  picturechange 2
| 11> end
| 12> %casscf
| 13>  nel  7
| 14>  norb 5
| 15>  mult 4,2
| 16>  nroots 10,40
| 17>  maxiter 100
| 18>  ActOrbs dOrbs
| 19>  rel
| 20>   printlevel 3
| 21>   dosoc true
| 22>   gtensor true
| 23>   quad true
| 24>  end
| 25> end
| 26> * xyzfile 0 4 geo.xyz *
| 27> 
| 28>                          ****END OF INPUT****
================================================================================

                       ****************************
                       * Single Point Calculation *
                       ****************************

---------------------------------
CARTESIAN COORDINATES (ANGSTROEM)
---------------------------------
  Co    -0.018155   -1.343827    1.362546
  P      2.042457   -0.459627    1.146615
  C      2.592107   -1.133344   -0.462669
  O      3.091008   -0.654698    2.209661
  O      1.678070    1.104555    0.801867
  C      1.763259   -1.015336   -1.591541
  C      3.797369   -1.845052   -0.546366
  C      2.764473    1.978385    0.414532
  C      2.151961   -1.593149   -2.800868
  H      0.813785   -0.480961   -1.522247
  C      4.183659   -2.413006   -1.761468
  H      4.418141   -1.936543    0.345213
  H      2.327482    2.969862    0.257285
  H      3.226731    1.623741   -0.518334
  H      3.519608    2.022465    1.209808
  C      3.362259   -2.288560   -2.886820
  H      1.508876   -1.503804   -3.676603
  H      5.126104   -2.956846   -1.831872
  H      3.663760   -2.739744   -3.832477
  P     -2.060293   -1.108834    0.442001
  C     -2.602354    0.516334    1.083037
  O     -3.123471   -2.157448    0.636550
  O     -1.668979   -0.789844   -1.121233
  C     -1.758006    1.633417    0.962770
  C     -3.819249    0.625280    1.771033
  C     -2.737660   -0.401961   -2.016337
  C     -2.142669    2.856185    1.514337
  H     -0.799960    1.544181    0.446937
  C     -4.201297    1.853667    2.312753
  H     -4.452135   -0.257489    1.864902
  H     -2.284198   -0.263736   -3.003252
  H     -3.193755    0.541167   -1.681403
  H     -3.501551   -1.188832   -2.060817
  C     -3.364366    2.967211    2.185864
  H     -1.487676    3.722863    1.423206
  H     -5.152591    1.943691    2.837959
  H     -3.662747    3.923370    2.616506

----------------------------
CARTESIAN COORDINATES (A.U.)
----------------------------
  NO LB      ZA    FRAG     MASS         X           Y           Z
   0 Co   27.0000    0    58.930   -0.034308   -2.539465    2.574840
   1 P    15.0000    0    30.974    3.859684   -0.868570    2.166788
   2 C     6.0000    0    12.011    4.898372   -2.141710   -0.874318
   3 O     8.0000    0    15.999    5.841159   -1.237201    4.175655
   4 O     8.0000    0    15.999    3.171092    2.087307    1.515309
   5 C     6.0000    0    12.011    3.332077   -1.918707   -3.007576
   6 C     6.0000    0    12.011    7.175987   -3.486644   -1.032482
   7 C     6.0000    0    12.011    5.224097    3.738606    0.783352
   8 C     6.0000    0    12.011    4.066618   -3.010615   -5.292874
   9 H     1.0000    0     1.008    1.537831   -0.908885   -2.876631
  10 C     6.0000    0    12.011    7.905970   -4.559920   -3.328693
  11 H     1.0000    0     1.008    8.349076   -3.659536    0.652359
  12 H     1.0000    0     1.008    4.398303    5.612227    0.486199
  13 H     1.0000    0     1.008    6.097638    3.068427   -0.979509
  14 H     1.0000    0     1.008    6.651096    3.821904    2.286205
  15 C     6.0000    0    12.011    6.353750   -4.324751   -5.455299
  16 H     1.0000    0     1.008    2.851363   -2.841778   -6.947774
  17 H     1.0000    0     1.008    9.686933   -5.587628   -3.461736
  18 H     1.0000    0     1.008    6.923503   -5.177367   -7.242332
  19 P    15.0000    0    30.974   -3.893390   -2.095392    0.835261
  20 C     6.0000    0    12.011   -4.917736    0.975729    2.046643
  21 O     8.0000    0    15.999   -5.902505   -4.076986    1.202906
  22 O     8.0000    0    15.999   -3.153914   -1.492588   -2.118823
  23 C     6.0000    0    12.011   -3.322149    3.086710    1.819372
  24 C     6.0000    0    12.011   -7.217334    1.181607    3.346768
  25 C     6.0000    0    12.011   -5.173427   -0.759597   -3.810325
  26 C     6.0000    0    12.011   -4.049058    5.397407    2.861682
  27 H     1.0000    0     1.008   -1.511705    2.918080    0.844588
  28 C     6.0000    0    12.011   -7.939300    3.502924    4.370469
  29 H     1.0000    0     1.008   -8.413315   -0.486584    3.524155
  30 H     1.0000    0     1.008   -4.316508   -0.498389   -5.675323
  31 H     1.0000    0     1.008   -6.035322    1.022658   -3.177392
  32 H     1.0000    0     1.008   -6.616972   -2.246567   -3.894380
  33 C     6.0000    0    12.011   -6.357730    5.607215    4.130685
  34 H     1.0000    0     1.008   -2.811301    7.035191    2.689470
  35 H     1.0000    0     1.008   -9.736987    3.673043    5.362966
  36 H     1.0000    0     1.008   -6.921588    7.414095    4.944480

--------------------------------
INTERNAL COORDINATES (ANGSTROEM)
--------------------------------
 Co     0   0   0     0.000000000000     0.00000000     0.00000000
 P      1   0   0     2.252677693768     0.00000000     0.00000000
 C      2   1   0     1.829153762501   102.39423429     0.00000000
 O      2   1   3     1.505848779641   121.22731430   235.30373615
 O      2   1   3     1.642649080366   101.00897515   106.58956344
 C      3   2   1     1.405441360362   119.90251299    50.67841661
 C      3   2   1     1.402208695234   119.85118582   234.99659296
 C      5   2   1     1.447024087337   117.68865752   188.00280962
 C      6   3   2     1.395503693376   119.80336331   183.46158603
 H      6   3   2     1.091723008155   120.19986497     2.93655275
 C      7   3   2     1.395802643560   119.76013529   176.94847984
 H      7   3   2     1.090248752369   118.89416994   356.55610492
 H      8   5   2     1.094858550894   106.59730472   181.57979786
 H      8   5   2     1.099860564746   110.35662357    62.45562936
 H      8   5   2     1.097558993244   110.29463238   300.98959938
 C      9   6   3     1.398501147564   120.01353430     0.07772063
 H      9   6   3     1.090161940204   119.86072711   179.88428975
 H     11   7   3     1.090376299973   119.89161900   179.28001706
 H     16   9   6     1.090292861349   119.89405085   179.96357925
 P      1   2   3     2.252321824101   138.52524084   288.89899729
 C     20   1   2     1.829187142992   102.60043696   288.72713884
 O     20   1   2     1.505918117190   120.97508935   164.01809731
 O     20   1   2     1.642736110228   101.14017892    35.33647980
 C     21  20   1     1.405440027452   119.87802979    50.74286621
 C     21  20   1     1.402156155519   119.87918799   234.96555156
 C     23  20   1     1.446976732401   117.69642896   187.83223027
 C     24  21  20     1.395476239660   119.80385502   183.35776568
 H     24  21  20     1.091741287712   120.17649744     2.84439629
 C     25  21  20     1.395835602207   119.75864570   177.04904144
 H     25  21  20     1.090246405305   118.89022431   356.65323737
 H     26  23  20     1.094867291990   106.59244399   181.59373815
 H     26  23  20     1.099861266145   110.35003838    62.47173260
 H     26  23  20     1.097576123508   110.29863637   300.99767620
 C     27  24  21     1.398505862918   120.01024454     0.08050684
 H     27  24  21     1.090160947914   119.86452342   179.88899395
 H     29  25  21     1.090370594745   119.89352456   179.27674582
 H     34  27  24     1.090286562904   119.89118915   179.96876136

---------------------------
INTERNAL COORDINATES (A.U.)
---------------------------
 Co     0   0   0     0.000000000000     0.00000000     0.00000000
 P      1   0   0     4.256943909214     0.00000000     0.00000000
 C      2   1   0     3.456599667959   102.39423429     0.00000000
 O      2   1   3     2.845641792620   121.22731430   235.30373615
 O      2   1   3     3.104156896030   101.00897515   106.58956344
 C      3   2   1     2.655899268370   119.90251299    50.67841661
 C      3   2   1     2.649790416595   119.85118582   234.99659296
 C      5   2   1     2.734479234254   117.68865752   188.00280962
 C      6   3   2     2.637119799356   119.80336331   183.46158603
 H      6   3   2     2.063057499514   120.19986497     2.93655275
 C      7   3   2     2.637684733333   119.76013529   176.94847984
 H      7   3   2     2.060271559827   118.89416994   356.55610492
 H      8   5   2     2.068982816572   106.59730472   181.57979786
 H      8   5   2     2.078435252870   110.35662357    62.45562936
 H      8   5   2     2.074085913054   110.29463238   300.98959938
 C      9   6   3     2.642784166871   120.01353430     0.07772063
 H      9   6   3     2.060107508610   119.86072711   179.88428975
 H     11   7   3     2.060512589867   119.89161900   179.28001706
 H     16   9   6     2.060354913719   119.89405085   179.96357925
 P      1   2   3     4.256271413006   138.52524084   288.89899729
 C     20   1   2     3.456662747945   102.60043696   288.72713884
 O     20   1   2     2.845772821599   120.97508935   164.01809731
 O     20   1   2     3.104321358633   101.14017892    35.33647980
 C     21  20   1     2.655896749535   119.87802979    50.74286621
 C     21  20   1     2.649691130924   119.87918799   234.96555156
 C     23  20   1     2.734389746394   117.69642896   187.83223027
 C     24  21  20     2.637067919352   119.80385502   183.35776568
 H     24  21  20     2.063092042870   120.17649744     2.84439629
 C     25  21  20     2.637747016148   119.75864570   177.04904144
 H     25  21  20     2.060267124518   118.89022431   356.65323737
 H     26  23  20     2.068999334849   106.59244399   181.59373815
 H     26  23  20     2.078436578323   110.35003838    62.47173260
 H     26  23  20     2.074118284562   110.29863637   300.99767620
 C     27  24  21     2.642793077599   120.01024454     0.08050684
 H     27  24  21     2.060105633453   119.86452342   179.88899395
 H     29  25  21     2.060501808548   119.89352456   179.27674582
 H     34  27  24     2.060343011384   119.89118915   179.96876136

---------------------
BASIS SET INFORMATION
---------------------
There are 5 groups of distinct atoms

 Group   1 Type Co  : 17s12p7d2f1g contracted to 10s7p4d2f1g pattern {8111111111/6111111/4111/11/1}
 Group   2 Type P   : 14s9p3d1f contracted to 8s4p3d1f pattern {71111111/6111/111/1}
 Group   3 Type C   : 11s6p2d1f contracted to 6s3p2d1f pattern {611111/411/11/1}
 Group   4 Type O   : 11s6p2d1f contracted to 6s3p2d1f pattern {611111/411/11/1}
 Group   5 Type H   : 5s2p1d contracted to 3s2p1d pattern {311/11/1}

Atom   0Co   basis set group =>   1
Atom   1P    basis set group =>   2
Atom   2C    basis set group =>   3
Atom   3O    basis set group =>   4
Atom   4O    basis set group =>   4
Atom   5C    basis set group =>   3
Atom   6C    basis set group =>   3
Atom   7C    basis set group =>   3
Atom   8C    basis set group =>   3
Atom   9H    basis set group =>   5
Atom  10C    basis set group =>   3
Atom  11H    basis set group =>   5
Atom  12H    basis set group =>   5
Atom  13H    basis set group =>   5
Atom  14H    basis set group =>   5
Atom  15C    basis set group =>   3
Atom  16H    basis set group =>   5
Atom  17H    basis set group =>   5
Atom  18H    basis set group =>   5
Atom  19P    basis set group =>   2
Atom  20C    basis set group =>   3
Atom  21O    basis set group =>   4
Atom  22O    basis set group =>   4
Atom  23C    basis set group =>   3
Atom  24C    basis set group =>   3
Atom  25C    basis set group =>   3
Atom  26C    basis set group =>   3
Atom  27H    basis set group =>   5
Atom  28C    basis set group =>   3
Atom  29H    basis set group =>   5
Atom  30H    basis set group =>   5
Atom  31H    basis set group =>   5
Atom  32H    basis set group =>   5
Atom  33C    basis set group =>   3
Atom  34H    basis set group =>   5
Atom  35H    basis set group =>   5
Atom  36H    basis set group =>   5
---------------------------------
AUXILIARY/J BASIS SET INFORMATION
---------------------------------
There are 5 groups of distinct atoms

 Group   1 Type Co  : 22s18p17d17f16g6h3i contracted to 22s18p17d17f16g6h3i pattern {1111111111111111111111/111111111111111111/11111111111111111/11111111111111111/1111111111111111/111111/111}
 Group   2 Type P   : 19s16p15d9f5g contracted to 19s16p15d9f5g pattern {1111111111111111111/1111111111111111/111111111111111/111111111/11111}
 Group   3 Type C   : 16s13p12d7f3g contracted to 16s13p12d7f3g pattern {1111111111111111/1111111111111/111111111111/1111111/111}
 Group   4 Type O   : 16s13p12d7f3g contracted to 16s13p12d7f3g pattern {1111111111111111/1111111111111/111111111111/1111111/111}
 Group   5 Type H   : 11s4p3d2f contracted to 11s4p3d2f pattern {11111111111/1111/111/11}

Atom   0Co   basis set group =>   1
Atom   1P    basis set group =>   2
Atom   2C    basis set group =>   3
Atom   3O    basis set group =>   4
Atom   4O    basis set group =>   4
Atom   5C    basis set group =>   3
Atom   6C    basis set group =>   3
Atom   7C    basis set group =>   3
Atom   8C    basis set group =>   3
Atom   9H    basis set group =>   5
Atom  10C    basis set group =>   3
Atom  11H    basis set group =>   5
Atom  12H    basis set group =>   5
Atom  13H    basis set group =>   5
Atom  14H    basis set group =>   5
Atom  15C    basis set group =>   3
Atom  16H    basis set group =>   5
Atom  17H    basis set group =>   5
Atom  18H    basis set group =>   5
Atom  19P    basis set group =>   2
Atom  20C    basis set group =>   3
Atom  21O    basis set group =>   4
Atom  22O    basis set group =>   4
Atom  23C    basis set group =>   3
Atom  24C    basis set group =>   3
Atom  25C    basis set group =>   3
Atom  26C    basis set group =>   3
Atom  27H    basis set group =>   5
Atom  28C    basis set group =>   3
Atom  29H    basis set group =>   5
Atom  30H    basis set group =>   5
Atom  31H    basis set group =>   5
Atom  32H    basis set group =>   5
Atom  33C    basis set group =>   3
Atom  34H    basis set group =>   5
Atom  35H    basis set group =>   5
Atom  36H    basis set group =>   5
---------------------------------
AUXILIARY/C BASIS SET INFORMATION
---------------------------------
There are 5 groups of distinct atoms

 Group   1 Type Co  : 22s18p17d17f16g6h3i contracted to 22s18p17d17f16g6h3i pattern {1111111111111111111111/111111111111111111/11111111111111111/11111111111111111/1111111111111111/111111/111}
 Group   2 Type P   : 19s16p15d9f5g contracted to 19s16p15d9f5g pattern {1111111111111111111/1111111111111111/111111111111111/111111111/11111}
 Group   3 Type C   : 16s13p12d7f3g contracted to 16s13p12d7f3g pattern {1111111111111111/1111111111111/111111111111/1111111/111}
 Group   4 Type O   : 16s13p12d7f3g contracted to 16s13p12d7f3g pattern {1111111111111111/1111111111111/111111111111/1111111/111}
 Group   5 Type H   : 11s4p3d2f contracted to 11s4p3d2f pattern {11111111111/1111/111/11}

Atom   0Co   basis set group =>   1
Atom   1P    basis set group =>   2
Atom   2C    basis set group =>   3
Atom   3O    basis set group =>   4
Atom   4O    basis set group =>   4
Atom   5C    basis set group =>   3
Atom   6C    basis set group =>   3
Atom   7C    basis set group =>   3
Atom   8C    basis set group =>   3
Atom   9H    basis set group =>   5
Atom  10C    basis set group =>   3
Atom  11H    basis set group =>   5
Atom  12H    basis set group =>   5
Atom  13H    basis set group =>   5
Atom  14H    basis set group =>   5
Atom  15C    basis set group =>   3
Atom  16H    basis set group =>   5
Atom  17H    basis set group =>   5
Atom  18H    basis set group =>   5
Atom  19P    basis set group =>   2
Atom  20C    basis set group =>   3
Atom  21O    basis set group =>   4
Atom  22O    basis set group =>   4
Atom  23C    basis set group =>   3
Atom  24C    basis set group =>   3
Atom  25C    basis set group =>   3
Atom  26C    basis set group =>   3
Atom  27H    basis set group =>   5
Atom  28C    basis set group =>   3
Atom  29H    basis set group =>   5
Atom  30H    basis set group =>   5
Atom  31H    basis set group =>   5
Atom  32H    basis set group =>   5
Atom  33C    basis set group =>   3
Atom  34H    basis set group =>   5
Atom  35H    basis set group =>   5
Atom  36H    basis set group =>   5
----------------------------------
AUXILIARY/JK BASIS SET INFORMATION
----------------------------------
There are 5 groups of distinct atoms

 Group   1 Type Co  : 22s18p17d17f16g6h3i contracted to 22s18p17d17f16g6h3i pattern {1111111111111111111111/111111111111111111/11111111111111111/11111111111111111/1111111111111111/111111/111}
 Group   2 Type P   : 19s16p15d9f5g contracted to 19s16p15d9f5g pattern {1111111111111111111/1111111111111111/111111111111111/111111111/11111}
 Group   3 Type C   : 16s13p12d7f3g contracted to 16s13p12d7f3g pattern {1111111111111111/1111111111111/111111111111/1111111/111}
 Group   4 Type O   : 16s13p12d7f3g contracted to 16s13p12d7f3g pattern {1111111111111111/1111111111111/111111111111/1111111/111}
 Group   5 Type H   : 11s4p3d2f contracted to 11s4p3d2f pattern {11111111111/1111/111/11}

Atom   0Co   basis set group =>   1
Atom   1P    basis set group =>   2
Atom   2C    basis set group =>   3
Atom   3O    basis set group =>   4
Atom   4O    basis set group =>   4
Atom   5C    basis set group =>   3
Atom   6C    basis set group =>   3
Atom   7C    basis set group =>   3
Atom   8C    basis set group =>   3
Atom   9H    basis set group =>   5
Atom  10C    basis set group =>   3
Atom  11H    basis set group =>   5
Atom  12H    basis set group =>   5
Atom  13H    basis set group =>   5
Atom  14H    basis set group =>   5
Atom  15C    basis set group =>   3
Atom  16H    basis set group =>   5
Atom  17H    basis set group =>   5
Atom  18H    basis set group =>   5
Atom  19P    basis set group =>   2
Atom  20C    basis set group =>   3
Atom  21O    basis set group =>   4
Atom  22O    basis set group =>   4
Atom  23C    basis set group =>   3
Atom  24C    basis set group =>   3
Atom  25C    basis set group =>   3
Atom  26C    basis set group =>   3
Atom  27H    basis set group =>   5
Atom  28C    basis set group =>   3
Atom  29H    basis set group =>   5
Atom  30H    basis set group =>   5
Atom  31H    basis set group =>   5
Atom  32H    basis set group =>   5
Atom  33C    basis set group =>   3
Atom  34H    basis set group =>   5
Atom  35H    basis set group =>   5
Atom  36H    basis set group =>   5


           ************************************************************
           *        Program running with 40 parallel MPI-processes    *
           *              working on a common directory               *
           ************************************************************
------------------------------------------------------------------------------
                           ORCA GTO INTEGRAL CALCULATION
                           -- RI-GTO INTEGRALS CHOSEN --
------------------------------------------------------------------------------
------------------------------------------------------------------------------
                   ___                                                        
                  /   \      - P O W E R E D   B Y -                         
                 /     \                                                     
                 |  |  |   _    _      __       _____    __    __             
                 |  |  |  | |  | |    /  \     |  _  \  |  |  /  |          
                  \  \/   | |  | |   /    \    | | | |  |  | /  /          
                 / \  \   | |__| |  /  /\  \   | |_| |  |  |/  /          
                |  |  |   |  __  | /  /__\  \  |    /   |      \           
                |  |  |   | |  | | |   __   |  |    \   |  |\   \          
                \     /   | |  | | |  |  |  |  | |\  \  |  | \   \       
                 \___/    |_|  |_| |__|  |__|  |_| \__\ |__|  \__/        
                                                                              
                      - O R C A' S   B I G   F R I E N D -                    
                                      &                                       
                       - I N T E G R A L  F E E D E R -                       
                                                                              
 v1 FN, 2020, v2 2021                                                         
------------------------------------------------------------------------------


Reading SHARK input file rho.SHARKINP.tmp ... ok
----------------------
SHARK INTEGRAL PACKAGE
----------------------

Number of atoms                             ...     37
Number of basis functions                   ...    958
Number of shells                            ...    368
Maximum angular momentum                    ...      4
Integral batch strategy                     ... SHARK/LIBINT Hybrid
RI-J (if used) integral strategy            ... SPLIT-RIJ (Revised 2003 algorithm where possible)
Printlevel                                  ...      1
Contraction scheme used                     ... SEGMENTED contraction
Coulomb Range Separation                    ... NOT USED
Exchange Range Separation                   ... NOT USED
Finite Nucleus Model                        ... NOT USED
Auxiliary Coulomb fitting basis             ... AVAILABLE
   # of basis functions in Aux-J            ...   5299
   # of shells in Aux-J                     ...   1465
   Maximum angular momentum in Aux-J        ...      6
Auxiliary J/K fitting basis                 ... AVAILABLE
   # of basis functions in Aux-JK           ...   5299
   # of shells in Aux-JK                    ...   1465
   Maximum angular momentum in Aux-JK       ...      6
Auxiliary Correlation fitting basis         ... AVAILABLE
   # of basis functions in Aux-C            ...   5299
   # of shells in Aux-C                     ...   1465
   Maximum angular momentum in Aux-C        ...      6
Auxiliary 'external' fitting basis          ... NOT available
Integral threshold                          ...     1.000000e-12
Primitive cut-off                           ...     1.000000e-14
Primitive pair pre-selection threshold      ...     1.000000e-14

Calculating pre-screening integrals         ... done (  0.1 sec) Dimension = 368
Organizing shell pair data                  ... done (  0.3 sec)
Shell pair information
Total number of shell pairs                 ...     67896
Shell pairs after pre-screening             ...     44972
Total number of primitive shell pairs       ...    169618
Primitive shell pairs kept                  ...     79482
          la=0 lb=0:  10398 shell pairs
          la=1 lb=0:  12776 shell pairs
          la=1 lb=1:   3931 shell pairs
          la=2 lb=0:   7021 shell pairs
          la=2 lb=1:   4386 shell pairs
          la=2 lb=2:   1240 shell pairs
          la=3 lb=0:   2445 shell pairs
          la=3 lb=1:   1556 shell pairs
          la=3 lb=2:    836 shell pairs
          la=3 lb=3:    159 shell pairs
          la=4 lb=0:     98 shell pairs
          la=4 lb=1:     73 shell pairs
          la=4 lb=2:     36 shell pairs
          la=4 lb=3:     16 shell pairs
          la=4 lb=4:      1 shell pairs

Calculating one electron integrals          ... done (  0.1 sec)
Calculating RI/J V-Matrix + Cholesky decomp.... done (  2.0 sec)
Calculating RI/JK V-Matrix + Cholesky decomp... done (  1.8 sec)
Calculating RI/C V-Matrix + Cholesky decomp.... done (  1.8 sec)
Calculating Nuclear repulsion               ... done (  0.0 sec) ENN=   2439.474637677873 Eh

SHARK setup successfully completed in   6.9 seconds

Maximum memory used throughout the entire GTOINT-calculation: 83.6 MB


           ************************************************************
           *        Program running with 40 parallel MPI-processes    *
           *              working on a common directory               *
           ************************************************************
------------------------------------------------------------------------------
                          ORCA RELATIVISTIC HAMILTONIAN
------------------------------------------------------------------------------

Relativistic Method            ... DKH
Order of DKH treatment         ...   2
Treatment of potential         ... V(e,N)
Eps parameter for DKH          ...   0.00000000010000
Nucleus model                  ... Point Nucleus
Speed of light used            ... 137.03598950000000


            ************************************************
            *        DOUGLAS-KROLL-HESS HAMILTONIAN        *
            *   Programmed by FN according to literature   *
            *        procedures. Special thanks to         *
            *       B.A. Hess, M. Reiher and A. Wolf       *
            *     University Erlangen-Nuernberg/Bonn       *
            ************************************************

Uncontracting the basis (first version)        ... done
Number of contracted basis functions           ...  958
Number of uncontracted basis functions         ... 1321
Initializing the DKH file                      ... done
Calculating the relativistic integrals         ... done
Storing DKH matrices                           ... done
Code used for DKH trafo                        ... ORCA
Computing the DKH transformation               ... done
Storing the transformation variables           ... done
Transforming V and pVp to p**2 space           ... done
First transformation of V and pVp              ... done
Second transformation of Veff                  ... done
Adding kinetic energy                          ... done
Back transformation of Veff to r-space         ... done
Recovering DKH matrices                        ... done
Recontracting the H-matrix (first version)     ... done
Computing the DKH correction to the H-matrix   ... done
Reading the original H-matrix                  ... done
Adding DKH correction to the H-matrix          ... done
Storing the new modified H-matrix              ... done

Maximum memory used throughout the entire REL-calculation: 118.2 MB


           ************************************************************
           *        Program running with 40 parallel MPI-processes    *
           *              working on a common directory               *
           ************************************************************
-------------------------------------------------------------------------------
                                 ORCA SCF
-------------------------------------------------------------------------------

------------
SCF SETTINGS
------------
Hamiltonian:
 Ab initio Hamiltonian  Method          .... Hartree-Fock(GTOs)
 RI-approximation to the Coulomb term is turned on
   Number of AuxJ basis functions       .... 5299
   RIJ-COSX (HFX calculated with COS-X)).... on

Relativistic Settings:
 Scalar relativistic method             .... Douglas-Kroll-Hess
 Order of DKH procedure    Order        ....    2
 Mode of DKH-treatment                  .... V=V(e,N)
 Speed of light used       Velit        ....       137.035989
 Cutoff-constant           Eps          ....            1e-10 


General Settings:
 Integral files         IntName         .... rho
 Hartree-Fock type      HFTyp           .... CASSCF
 Total Charge           Charge          ....    0
 Multiplicity           Mult            ....    4
 Number of Electrons    NEL             ....  189
 Basis Dimension        Dim             ....  958
 Nuclear Repulsion      ENuc            ....   2439.4746376779 Eh


Diagonalization of the overlap matrix:
Smallest eigenvalue                        ... 7.608e-06
Time for diagonalization                   ...    0.183 sec
Threshold for overlap eigenvalues          ... 1.000e-08
Number of eigenvalues below threshold      ... 0
Time for construction of square roots      ...    0.155 sec
Total time needed                          ...    0.344 sec

---------------------
INITIAL GUESS: MOREAD
---------------------
Guess MOs are being read from file: orb.gbw
Input Geometry matches current geometry (good)
Input basis set matches current basis set (good)
MOs were renormalized
Gram-Schmidt orthogonalization of all MOs with pivot on actives
                      ------------------
                      INITIAL GUESS DONE (   7.0 sec)
                      ------------------
--------------------
COSX GRID GENERATION
--------------------

GRIDX 1
-------
General Integration Accuracy     IntAcc      ... 3.816
Radial Grid Type                 RadialGrid  ... OptM3 with GC (2021)
Angular Grid (max. ang.)         AngularGrid ... 1 (Lebedev-50)
Angular grid pruning method      GridPruning ... 4 (adaptive)
Weight generation scheme         WeightScheme... Becke
Basis function cutoff            BFCut       ... 1.0000e-12
Integration weight cutoff        WCut        ... 1.0000e-14
Angular grids for H and He will be reduced by one unit
Partially contracted basis set               ... on
Rotationally invariant grid construction     ... off

Total number of grid points                  ...    23108
Total number of batches                      ...      378
Average number of points per batch           ...       61
Average number of grid points per atom       ...      625

GRIDX 2
-------
General Integration Accuracy     IntAcc      ... 4.020
Radial Grid Type                 RadialGrid  ... OptM3 with GC (2021)
Angular Grid (max. ang.)         AngularGrid ... 2 (Lebedev-110)
Angular grid pruning method      GridPruning ... 4 (adaptive)
Weight generation scheme         WeightScheme... Becke
Basis function cutoff            BFCut       ... 1.0000e-12
Integration weight cutoff        WCut        ... 1.0000e-14
Angular grids for H and He will be reduced by one unit
Partially contracted basis set               ... on
Rotationally invariant grid construction     ... off

Total number of grid points                  ...    50080
Total number of batches                      ...      799
Average number of points per batch           ...       62
Average number of grid points per atom       ...     1354

GRIDX 3
-------
General Integration Accuracy     IntAcc      ... 4.338
Radial Grid Type                 RadialGrid  ... OptM3 with GC (2021)
Angular Grid (max. ang.)         AngularGrid ... 3 (Lebedev-194)
Angular grid pruning method      GridPruning ... 4 (adaptive)
Weight generation scheme         WeightScheme... Becke
Basis function cutoff            BFCut       ... 1.0000e-12
Integration weight cutoff        WCut        ... 1.0000e-14
Angular grids for H and He will be reduced by one unit
Partially contracted basis set               ... on
Rotationally invariant grid construction     ... off

Total number of grid points                  ...   110679
Total number of batches                      ...     1748
Average number of points per batch           ...       63
Average number of grid points per atom       ...     2991

Time for X-Grid setup             =    0.732 sec



 ... the calculation is a CASSCF calculation -I'm leaving here GOOD LUCK!!!



           ************************************************************
           *        Program running with 40 parallel MPI-processes    *
           *              working on a common directory               *
           ************************************************************
-------------------------------------------------------------------------------
                              ORCA-CASSCF
-------------------------------------------------------------------------------

Setting up the integral package       ... done
Setting up the integral package (RI)  ... done
Building the CAS space                ... done (10 configurations for Mult=4)
Building the CAS space                ... done (30 configurations for Mult=2)

SYSTEM-SPECIFIC SETTINGS:
Number of active electrons          ...    7
Number of active orbitals           ...    5
Total number of electrons           ...  189
Total number of orbitals            ...  958
Total number aux. functions         ... 5299

Determined orbital ranges:
   Internal       0 -   90 (  91 orbitals)
   Active        91 -   95 (   5 orbitals)
   External      96 -  957 ( 862 orbitals)
Number of rotation parameters      ...  83207

CI-STEP:
CI strategy                         ... General CI
Number of multiplicity blocks       ...    2
BLOCK  1 WEIGHT=   0.5000
  Multiplicity                      ...    4
  #(Configurations)                 ...   10
  #(CSFs)                           ...   10
  #(Roots)                          ...   10
    ROOT=0 WEIGHT=    0.050000
    ROOT=1 WEIGHT=    0.050000
    ROOT=2 WEIGHT=    0.050000
    ROOT=3 WEIGHT=    0.050000
    ROOT=4 WEIGHT=    0.050000
    ROOT=5 WEIGHT=    0.050000
    ROOT=6 WEIGHT=    0.050000
    ROOT=7 WEIGHT=    0.050000
    ROOT=8 WEIGHT=    0.050000
    ROOT=9 WEIGHT=    0.050000

BLOCK  2 WEIGHT=   0.5000
  Multiplicity                      ...    2
  #(Configurations)                 ...   30
  #(CSFs)                           ...   40
  #(Roots)                          ...   40
    ROOT=0 WEIGHT=    0.012500
    ROOT=1 WEIGHT=    0.012500
    ROOT=2 WEIGHT=    0.012500
    ROOT=3 WEIGHT=    0.012500
    ROOT=4 WEIGHT=    0.012500
    ROOT=5 WEIGHT=    0.012500
    ROOT=6 WEIGHT=    0.012500
    ROOT=7 WEIGHT=    0.012500
    ROOT=8 WEIGHT=    0.012500
    ROOT=9 WEIGHT=    0.012500
    ROOT=10 WEIGHT=    0.012500
    ROOT=11 WEIGHT=    0.012500
    ROOT=12 WEIGHT=    0.012500
    ROOT=13 WEIGHT=    0.012500
    ROOT=14 WEIGHT=    0.012500
    ROOT=15 WEIGHT=    0.012500
    ROOT=16 WEIGHT=    0.012500
    ROOT=17 WEIGHT=    0.012500
    ROOT=18 WEIGHT=    0.012500
    ROOT=19 WEIGHT=    0.012500
    ROOT=20 WEIGHT=    0.012500
    ROOT=21 WEIGHT=    0.012500
    ROOT=22 WEIGHT=    0.012500
    ROOT=23 WEIGHT=    0.012500
    ROOT=24 WEIGHT=    0.012500
    ROOT=25 WEIGHT=    0.012500
    ROOT=26 WEIGHT=    0.012500
    ROOT=27 WEIGHT=    0.012500
    ROOT=28 WEIGHT=    0.012500
    ROOT=29 WEIGHT=    0.012500
    ROOT=30 WEIGHT=    0.012500
    ROOT=31 WEIGHT=    0.012500
    ROOT=32 WEIGHT=    0.012500
    ROOT=33 WEIGHT=    0.012500
    ROOT=34 WEIGHT=    0.012500
    ROOT=35 WEIGHT=    0.012500
    ROOT=36 WEIGHT=    0.012500
    ROOT=37 WEIGHT=    0.012500
    ROOT=38 WEIGHT=    0.012500
    ROOT=39 WEIGHT=    0.012500

  PrintLevel                        ...    1
  N(GuessMat)                       ...       512
  MaxDim(CI)                        ...        10
  MaxIter(CI)                       ...        64
  Energy Tolerance CI               ...  1.00e-09
  Residual Tolerance CI             ...  1.00e-09
  Shift(CI)                         ...  1.00e-04

INTEGRAL-TRANSFORMATION-STEP:
  Algorithm                         ... RI-MO

ORBITAL-IMPROVEMENT-STEP:
  Algorithm                         ... SuperCI
  Default Parametrization           ... CAYLEY
  Act-Act rotations                 ... depends on algorithm used
  FreezeIE                          ... 95.00% of ||g||
  Until reaching FreezeIE rotations with active orbitals are damped. 

  Approx. Fock at                   ... 0.000000e+00 density convergence
  Level shift                       ... energy gap dependent. Minimum=1.000
  Switch step at gradient           ...  3.00e-02 
  Switch step at iteration          ...        50   
  Switch step to                    ... DIIS    

SCF-SETTINGS:
  Incremental                       ... off
  RIJCOSX approximation             ... on
  UseFinalGrid                      ... on
  RI-JK approximation               ... off
  AO integral handling              ... DIRECT
  Integral Neglect Thresh           ...  1.00e-12
  Primitive cutoff TCut             ...  1.00e-14
  Energy convergence tolerance      ...  1.00e-08
  Orbital gradient convergence      ...  1.00e-05
  Max. number of iterations         ...       100  


PROPERTIES-SETTINGS:
  Spin orbit coupling               ... true
  GTensor                           ... true

FINAL ORBITALS:
  Active   Orbitals                 ... d-orbitals 
  Internal Orbitals                 ... canonical 
  External Orbitals                 ... canonical 

------------------
CAS-SCF ITERATIONS
------------------


MACRO-ITERATION   1: 
   --- Canonicalize Internal Space
   --- Canonicalize External Space
   --- Inactive Energy E0 = -2897.97286792 Eh
CI-ITERATION   0: 
 -2914.636807800   0.000000000000 (    0.00)
 -2914.629817208   0.000000000000
 -2914.590819409   0.000000000000
 -2914.572417663   0.000000000000
 -2914.534481892   0.000000000000
 -2914.527800262   0.000000000000
 -2914.508912870   0.000000000000
 -2914.500778194   0.000000000000
 -2914.478322780   0.000000000000
 -2914.456016368   0.000000000000
   CI-PROBLEM SOLVED
   DENSITIES MADE
CI-ITERATION   0: 
 -2914.579042834   0.000000000000 (    0.01)
 -2914.574082845   0.000000000000
 -2914.571962644   0.000000000000
 -2914.562451427   0.000000000000
 -2914.551268710   0.000000000000
 -2914.550964858   0.000000000000
 -2914.542913427   0.000000000000
 -2914.536109846   0.000000000000
 -2914.535353909   0.000000000000
 -2914.529214734   0.000000000000
 -2914.518852491   0.000000000000
 -2914.518307134   0.000000000000
 -2914.514495726   0.000000000000
 -2914.505515930   0.000000000000
 -2914.504897175   0.000000000000
 -2914.487734124   0.000000000000
 -2914.481242359   0.000000000000
 -2914.477795414   0.000000000000
 -2914.476005062   0.000000000000
 -2914.466568566   0.000000000000
 -2914.465399845   0.000000000000
 -2914.456503842   0.000000000000
 -2914.437068102   0.000000000000
 -2914.436328424   0.000000000000
 -2914.434637263   0.000000000000
 -2914.427379321   0.000000000000
 -2914.425941330   0.000000000000
 -2914.422422146   0.000000000000
 -2914.419973164   0.000000000000
 -2914.413917560   0.000000000000
 -2914.412505803   0.000000000000
 -2914.389043379   0.000000000000
 -2914.370301184   0.000000000000
 -2914.346531126   0.000000000000
 -2914.332229795   0.000000000000
 -2914.303219074   0.000000000000
 -2913.957097626   0.000000000000
 -2913.952792695   0.000000000000
 -2913.926902877   0.000000000000
 -2913.889982323   0.000000000000
   CI-PROBLEM SOLVED
   DENSITIES MADE

                 <<<<<<<<<<<<<<<<<<INITIAL CI STATE CHECK>>>>>>>>>>>>>>>>>>

BLOCK  1 MULT= 4 NROOTS=10 
ROOT   0:  E=   -2914.6368078003 Eh
      0.29300 [     0]: 11122
      0.28579 [     1]: 11212
      0.16432 [     7]: 21121
      0.13657 [     2]: 11221
      0.07320 [     6]: 21112
      0.03096 [     8]: 21211
      0.00776 [     4]: 12121
      0.00500 [     5]: 12211
      0.00319 [     3]: 12112
ROOT   1:  E=   -2914.6298172076 Eh  0.190 eV   1534.3 cm**-1
      0.26047 [     6]: 21112
      0.24470 [     1]: 11212
      0.12378 [     2]: 11221
      0.11181 [     3]: 12112
      0.08760 [     7]: 21121
      0.07233 [     0]: 11122
      0.04761 [     5]: 12211
      0.03725 [     9]: 22111
      0.01421 [     4]: 12121
ROOT   2:  E=   -2914.5908194094 Eh  1.251 eV  10093.3 cm**-1
      0.31590 [     5]: 12211
      0.21420 [     9]: 22111
      0.20708 [     3]: 12112
      0.10755 [     1]: 11212
      0.04646 [     8]: 21211
      0.04044 [     2]: 11221
      0.03530 [     7]: 21121
      0.02793 [     0]: 11122
      0.00491 [     6]: 21112
ROOT   3:  E=   -2914.5724176626 Eh  1.752 eV  14132.0 cm**-1
      0.62994 [     8]: 21211
      0.23387 [     6]: 21112
      0.05063 [     9]: 22111
      0.02659 [     3]: 12112
      0.01996 [     2]: 11221
      0.01930 [     1]: 11212
      0.00860 [     5]: 12211
      0.00785 [     7]: 21121
      0.00315 [     4]: 12121
ROOT   4:  E=   -2914.5344818919 Eh  2.784 eV  22457.9 cm**-1
      0.17631 [     5]: 12211
      0.17445 [     9]: 22111
      0.15996 [     6]: 21112
      0.14631 [     4]: 12121
      0.11449 [     2]: 11221
      0.08846 [     1]: 11212
      0.07153 [     0]: 11122
      0.05406 [     8]: 21211
      0.01124 [     7]: 21121
      0.00320 [     3]: 12112
ROOT   5:  E=   -2914.5278002616 Eh  2.966 eV  23924.4 cm**-1
      0.36106 [     7]: 21121
      0.21464 [     2]: 11221
      0.12287 [     6]: 21112
      0.10979 [     3]: 12112
      0.07271 [     8]: 21211
      0.06646 [     1]: 11212
      0.04229 [     5]: 12211
      0.00670 [     0]: 11122
      0.00347 [     9]: 22111
ROOT   6:  E=   -2914.5089128697 Eh  3.480 eV  28069.7 cm**-1
      0.29160 [     4]: 12121
      0.24623 [     2]: 11221
      0.23783 [     0]: 11122
      0.10697 [     3]: 12112
      0.03483 [     1]: 11212
      0.02822 [     9]: 22111
      0.02576 [     5]: 12211
      0.02055 [     7]: 21121
      0.00502 [     8]: 21211
      0.00297 [     6]: 21112
ROOT   7:  E=   -2914.5007781940 Eh  3.702 eV  29855.0 cm**-1
      0.39626 [     4]: 12121
      0.24571 [     3]: 12112
      0.12233 [     5]: 12211
      0.08895 [     1]: 11212
      0.05737 [     9]: 22111
      0.04538 [     8]: 21211
      0.02615 [     6]: 21112
      0.01036 [     7]: 21121
      0.00741 [     0]: 11122
ROOT   8:  E=   -2914.4783227797 Eh  4.313 eV  34783.4 cm**-1
      0.30108 [     7]: 21121
      0.19417 [     0]: 11122
      0.13385 [     3]: 12112
      0.09582 [     5]: 12211
      0.09470 [     6]: 21112
      0.06508 [     8]: 21211
      0.05832 [     1]: 11212
      0.04141 [     4]: 12121
      0.01524 [     2]: 11221
ROOT   9:  E=   -2914.4560163677 Eh  4.920 eV  39679.1 cm**-1
      0.43385 [     9]: 22111
      0.16038 [     5]: 12211
      0.09906 [     4]: 12121
      0.08899 [     0]: 11122
      0.08856 [     2]: 11221
      0.05181 [     3]: 12112
      0.05015 [     8]: 21211
      0.02089 [     6]: 21112
      0.00564 [     1]: 11212

BLOCK  2 MULT= 2 NROOTS=40 
ROOT   0:  E=   -2914.5790428343 Eh
      0.12542 [    21]: 21211
      0.10576 [     6]: 11212
      0.09862 [    15]: 20212
      0.09637 [     5]: 11122
      0.06580 [    19]: 21121
      0.05566 [     9]: 12112
      0.05379 [    20]: 21202
      0.05124 [    18]: 21112
      0.04785 [    26]: 22111
      0.03951 [     7]: 11221
      0.03521 [    12]: 12211
      0.03116 [    22]: 21220
      0.02673 [    25]: 22102
      0.02543 [    10]: 12121
      0.02347 [    27]: 22120
      0.01835 [    16]: 20221
      0.01809 [     4]: 10222
      0.01596 [    11]: 12202
      0.01509 [    28]: 22201
      0.01378 [     2]: 02212
      0.01373 [    29]: 22210
      0.00683 [    14]: 20122
      0.00459 [     3]: 02221
      0.00355 [    17]: 21022
      0.00277 [    13]: 12220
ROOT   1:  E=   -2914.5740828452 Eh  0.135 eV   1088.6 cm**-1
      0.19113 [     6]: 11212
      0.09525 [    18]: 21112
      0.07094 [    16]: 20221
      0.07067 [    14]: 20122
      0.06596 [    11]: 12202
      0.05705 [    19]: 21121
      0.05435 [    21]: 21211
      0.05251 [    26]: 22111
      0.04748 [    12]: 12211
      0.03974 [    13]: 12220
      0.03696 [    25]: 22102
      0.02556 [    10]: 12121
      0.02435 [    22]: 21220
      0.02323 [     8]: 12022
      0.01950 [     4]: 10222
      0.01917 [    24]: 22021
      0.01857 [     1]: 02122
      0.01773 [     7]: 11221
      0.01492 [     3]: 02221
      0.00990 [    23]: 22012
      0.00960 [     9]: 12112
      0.00697 [    15]: 20212
      0.00626 [    28]: 22201
      0.00521 [     2]: 02212
      0.00395 [    29]: 22210
      0.00379 [     5]: 11122
      0.00322 [    17]: 21022
      0.00290 [     0]: 01222
ROOT   2:  E=   -2914.5719626444 Eh  0.193 eV   1553.9 cm**-1
      0.21668 [     4]: 10222
      0.10926 [     7]: 11221
      0.07488 [     6]: 11212
      0.07115 [    14]: 20122
      0.05636 [     5]: 11122
      0.04933 [    13]: 12220
      0.04898 [    12]: 12211
      0.03916 [     9]: 12112
      0.03540 [    26]: 22111
      0.03444 [    27]: 22120
      0.03381 [    19]: 21121
      0.03364 [    18]: 21112
      0.03271 [    10]: 12121
      0.03093 [    11]: 12202
      0.03010 [    17]: 21022
      0.01877 [    25]: 22102
      0.01551 [    21]: 21211
      0.01450 [    16]: 20221
      0.01231 [    15]: 20212
      0.00866 [    23]: 22012
      0.00826 [    20]: 21202
      0.00773 [     2]: 02212
      0.00751 [    22]: 21220
      0.00563 [    24]: 22021
      0.00370 [     8]: 12022
ROOT   3:  E=   -2914.5624514271 Eh  0.451 eV   3641.4 cm**-1
      0.16775 [     5]: 11122
      0.16734 [     0]: 01222
      0.11004 [    19]: 21121
      0.10076 [    20]: 21202
      0.05760 [    21]: 21211
      0.05535 [    15]: 20212
      0.04452 [    14]: 20122
      0.03116 [     7]: 11221
      0.03098 [    27]: 22120
      0.02955 [    22]: 21220
      0.02728 [     6]: 11212
      0.02520 [    12]: 12211
      0.02480 [    26]: 22111
      0.02236 [    23]: 22012
      0.02230 [     9]: 12112
      0.02109 [    17]: 21022
      0.01463 [    18]: 21112
      0.01103 [    10]: 12121
      0.00819 [     3]: 02221
      0.00606 [    11]: 12202
      0.00580 [     8]: 12022
      0.00410 [    29]: 22210
      0.00399 [    13]: 12220
ROOT   4:  E=   -2914.5512687102 Eh  0.756 eV   6095.7 cm**-1
      0.16667 [     6]: 11212
      0.08854 [     2]: 02212
      0.08583 [    19]: 21121
      0.08544 [    10]: 12121
      0.08095 [     1]: 02122
      0.06690 [    11]: 12202
      0.05860 [     5]: 11122
      0.05424 [    18]: 21112
      0.04575 [     7]: 11221
      0.04035 [     9]: 12112
      0.02893 [     3]: 02221
      0.02782 [     8]: 12022
      0.02409 [    25]: 22102
      0.02205 [    13]: 12220
      0.02021 [    27]: 22120
      0.01735 [    21]: 21211
      0.01605 [    16]: 20221
      0.01398 [    24]: 22021
      0.01062 [    12]: 12211
      0.01032 [     4]: 10222
      0.01018 [    26]: 22111
      0.00857 [    22]: 21220
      0.00710 [    15]: 20212
      0.00351 [    20]: 21202
ROOT   5:  E=   -2914.5509648575 Eh  0.764 eV   6162.4 cm**-1
      0.15665 [     2]: 02212
      0.14828 [     9]: 12112
      0.08095 [     7]: 11221
      0.07534 [    10]: 12121
      0.05409 [    18]: 21112
      0.04775 [    15]: 20212
      0.04632 [    17]: 21022
      0.04448 [     0]: 01222
      0.04369 [    19]: 21121
      0.04314 [    12]: 12211
      0.03942 [     4]: 10222
      0.03112 [     3]: 02221
      0.02910 [     6]: 11212
      0.02370 [     8]: 12022
      0.02329 [    23]: 22012
      0.01640 [    24]: 22021
      0.01470 [    26]: 22111
      0.01420 [    14]: 20122
      0.01079 [     5]: 11122
      0.01013 [     1]: 02122
      0.00954 [    11]: 12202
      0.00705 [    16]: 20221
      0.00677 [    27]: 22120
      0.00531 [    13]: 12220
      0.00463 [    21]: 21211
      0.00457 [    29]: 22210
      0.00418 [    20]: 21202
      0.00286 [    25]: 22102
ROOT   6:  E=   -2914.5429134271 Eh  0.983 eV   7929.5 cm**-1
      0.30563 [     5]: 11122
      0.12008 [    15]: 20212
      0.11364 [    21]: 21211
      0.08153 [     0]: 01222
      0.06319 [     4]: 10222
      0.05775 [    10]: 12121
      0.05135 [    17]: 21022
      0.03890 [     6]: 11212
      0.02389 [    27]: 22120
      0.02126 [    11]: 12202
      0.01965 [    16]: 20221
      0.01643 [     7]: 11221
      0.01457 [    18]: 21112
      0.01306 [     3]: 02221
      0.01183 [     1]: 02122
      0.00759 [    25]: 22102
      0.00677 [    19]: 21121
      0.00597 [    24]: 22021
      0.00547 [     8]: 12022
      0.00545 [    26]: 22111
      0.00477 [     9]: 12112
      0.00400 [    14]: 20122
      0.00285 [    29]: 22210
ROOT   7:  E=   -2914.5361098460 Eh  1.168 eV   9422.7 cm**-1
      0.22202 [     6]: 11212
      0.11444 [    14]: 20122
      0.08520 [    18]: 21112
      0.06156 [    20]: 21202
      0.06099 [     5]: 11122
      0.05899 [     7]: 11221
      0.05183 [    10]: 12121
      0.04597 [     1]: 02122
      0.04021 [    16]: 20221
      0.03864 [     3]: 02221
      0.02989 [    27]: 22120
      0.02607 [    22]: 21220
      0.02497 [     0]: 01222
      0.02363 [    19]: 21121
      0.01759 [     4]: 10222
      0.01635 [    13]: 12220
      0.01357 [    24]: 22021
      0.01257 [     8]: 12022
      0.01245 [    12]: 12211
      0.00835 [     9]: 12112
      0.00776 [    21]: 21211
      0.00741 [    15]: 20212
      0.00601 [    26]: 22111
      0.00466 [    11]: 12202
ROOT   8:  E=   -2914.5353539086 Eh  1.189 eV   9588.6 cm**-1
      0.14844 [     9]: 12112
      0.12099 [     7]: 11221
      0.08287 [     6]: 11212
      0.08201 [    12]: 12211
      0.07494 [    20]: 21202
      0.05403 [    18]: 21112
      0.04673 [    28]: 22201
      0.04460 [    29]: 22210
      0.04360 [    10]: 12121
      0.04228 [    22]: 21220
      0.04087 [    23]: 22012
      0.03080 [    17]: 21022
      0.02455 [     8]: 12022
      0.02205 [    24]: 22021
      0.02140 [     1]: 02122
      0.01943 [    25]: 22102
      0.01900 [     3]: 02221
      0.01709 [     2]: 02212
      0.01439 [    11]: 12202
      0.01369 [    15]: 20212
      0.00957 [    21]: 21211
      0.00825 [     0]: 01222
      0.00514 [    26]: 22111
      0.00501 [    27]: 22120
      0.00448 [     5]: 11122
      0.00278 [    19]: 21121
ROOT   9:  E=   -2914.5292147338 Eh  1.356 eV  10936.0 cm**-1
      0.13308 [     9]: 12112
      0.09094 [    15]: 20212
      0.08570 [    18]: 21112
      0.07539 [    20]: 21202
      0.07470 [    22]: 21220
      0.06794 [    19]: 21121
      0.05515 [    29]: 22210
      0.05404 [    21]: 21211
      0.05306 [    16]: 20221
      0.04466 [    10]: 12121
      0.03533 [    28]: 22201
      0.02774 [     3]: 02221
      0.02653 [     2]: 02212
      0.02403 [     7]: 11221
      0.02134 [     1]: 02122
      0.01808 [     4]: 10222
      0.01609 [     5]: 11122
      0.01516 [    23]: 22012
      0.01478 [    27]: 22120
      0.01473 [     0]: 01222
      0.01265 [    12]: 12211
      0.01006 [    11]: 12202
      0.00941 [     6]: 11212
      0.00774 [    17]: 21022
      0.00562 [    14]: 20122
ROOT  10:  E=   -2914.5188524911 Eh  1.638 eV  13210.3 cm**-1
      0.15273 [     6]: 11212
      0.13827 [    18]: 21112
      0.09913 [    11]: 12202
      0.08279 [     7]: 11221
      0.06755 [    13]: 12220
      0.05554 [    10]: 12121
      0.04039 [    21]: 21211
      0.03525 [    20]: 21202
      0.03386 [    27]: 22120
      0.03288 [    16]: 20221
      0.03154 [    26]: 22111
      0.03068 [    25]: 22102
      0.02706 [     5]: 11122
      0.02424 [     9]: 12112
      0.02206 [    12]: 12211
      0.01933 [    14]: 20122
      0.01808 [    19]: 21121
      0.01732 [    22]: 21220
      0.01698 [    28]: 22201
      0.01290 [     8]: 12022
      0.01244 [     2]: 02212
      0.00899 [    24]: 22021
      0.00775 [     0]: 01222
      0.00579 [     3]: 02221
      0.00254 [    17]: 21022
ROOT  11:  E=   -2914.5183071335 Eh  1.653 eV  13329.9 cm**-1
      0.21282 [    12]: 12211
      0.11486 [    26]: 22111
      0.10017 [     9]: 12112
      0.08081 [     4]: 10222
      0.07405 [    11]: 12202
      0.06323 [    14]: 20122
      0.06202 [    21]: 21211
      0.05581 [    19]: 21121
      0.04507 [    25]: 22102
      0.04128 [     7]: 11221
      0.03596 [     6]: 11212
      0.02582 [    15]: 20212
      0.01832 [    23]: 22012
      0.01710 [     5]: 11122
      0.00976 [    22]: 21220
      0.00826 [     0]: 01222
      0.00713 [    29]: 22210
      0.00708 [     2]: 02212
      0.00442 [    17]: 21022
      0.00419 [    18]: 21112
      0.00369 [    10]: 12121
      0.00311 [    20]: 21202
ROOT  12:  E=   -2914.5144957256 Eh  1.756 eV  14166.5 cm**-1
      0.12650 [    18]: 21112
      0.10172 [    29]: 22210
      0.10026 [    21]: 21211
      0.07783 [    11]: 12202
      0.07675 [     5]: 11122
      0.06657 [    28]: 22201
      0.06643 [     7]: 11221
      0.06210 [    26]: 22111
      0.04269 [    15]: 20212
      0.04188 [     9]: 12112
      0.03277 [     0]: 01222
      0.03207 [     6]: 11212
      0.03203 [    22]: 21220
      0.02062 [    14]: 20122
      0.02015 [    27]: 22120
      0.01757 [    17]: 21022
      0.01611 [    19]: 21121
      0.01341 [    20]: 21202
      0.01079 [    16]: 20221
      0.01050 [    10]: 12121
      0.00748 [     2]: 02212
      0.00602 [    12]: 12211
      0.00466 [    23]: 22012
      0.00454 [     4]: 10222
      0.00446 [    25]: 22102
ROOT  13:  E=   -2914.5055159300 Eh  2.001 eV  16137.3 cm**-1
      0.16223 [    20]: 21202
      0.12179 [    22]: 21220
      0.10218 [    26]: 22111
      0.09069 [    21]: 21211
      0.05619 [    18]: 21112
      0.05562 [    29]: 22210
      0.05533 [    12]: 12211
      0.05036 [    19]: 21121
      0.04803 [    15]: 20212
      0.04503 [    16]: 20221
      0.04145 [    17]: 21022
      0.02833 [     7]: 11221
      0.02811 [     6]: 11212
      0.02599 [    25]: 22102
      0.01953 [    28]: 22201
      0.01244 [     9]: 12112
      0.01231 [     0]: 01222
      0.01180 [     4]: 10222
      0.00747 [    14]: 20122
      0.00729 [     8]: 12022
      0.00456 [     2]: 02212
      0.00339 [    10]: 12121
      0.00327 [     5]: 11122
      0.00258 [    13]: 12220
ROOT  14:  E=   -2914.5048971747 Eh  2.018 eV  16273.1 cm**-1
      0.25645 [    21]: 21211
      0.11822 [    15]: 20212
      0.09084 [    16]: 20221
      0.07465 [    25]: 22102
      0.06986 [    28]: 22201
      0.05368 [    18]: 21112
      0.04803 [    13]: 12220
      0.04644 [     7]: 11221
      0.03298 [    23]: 22012
      0.02909 [    27]: 22120
      0.02739 [    29]: 22210
      0.02236 [    26]: 22111
      0.02042 [    14]: 20122
      0.01994 [     6]: 11212
      0.01744 [    10]: 12121
      0.01625 [    11]: 12202
      0.01234 [     5]: 11122
      0.01054 [     2]: 02212
      0.00889 [     4]: 10222
      0.00551 [     9]: 12112
      0.00408 [     3]: 02221
      0.00401 [     1]: 02122
      0.00276 [     8]: 12022
ROOT  15:  E=   -2914.4877341239 Eh  2.485 eV  20039.9 cm**-1
      0.25222 [    12]: 12211
      0.12402 [     6]: 11212
      0.09342 [    19]: 21121
      0.08752 [    26]: 22111
      0.05883 [     2]: 02212
      0.05602 [     9]: 12112
      0.05336 [    18]: 21112
      0.04768 [    21]: 21211
      0.04086 [     7]: 11221
      0.03126 [    17]: 21022
      0.02653 [    14]: 20122
      0.02590 [    20]: 21202
      0.02051 [    16]: 20221
      0.01632 [    24]: 22021
      0.01308 [     4]: 10222
      0.01220 [     1]: 02122
      0.00813 [     5]: 11122
      0.00624 [    27]: 22120
      0.00602 [     0]: 01222
      0.00516 [    23]: 22012
      0.00384 [    29]: 22210
      0.00263 [    15]: 20212
ROOT  16:  E=   -2914.4812423589 Eh  2.661 eV  21464.7 cm**-1
      0.10461 [    19]: 21121
      0.10357 [    18]: 21112
      0.10107 [    26]: 22111
      0.10037 [     6]: 11212
      0.08341 [    21]: 21211
      0.06328 [     2]: 02212
      0.06198 [    27]: 22120
      0.04791 [     1]: 02122
      0.04603 [     8]: 12022
      0.04414 [    10]: 12121
      0.03845 [    28]: 22201
      0.03694 [     9]: 12112
      0.02889 [    11]: 12202
      0.02789 [     0]: 01222
      0.02267 [    24]: 22021
      0.01510 [     5]: 11122
      0.01297 [     3]: 02221
      0.01260 [    22]: 21220
      0.00988 [    23]: 22012
      0.00926 [    20]: 21202
      0.00852 [    29]: 22210
      0.00786 [    14]: 20122
      0.00532 [    12]: 12211
ROOT  17:  E=   -2914.4777954141 Eh  2.755 eV  22221.2 cm**-1
      0.09914 [    26]: 22111
      0.09104 [    19]: 21121
      0.08825 [     9]: 12112
      0.08182 [     2]: 02212
      0.06414 [    16]: 20221
      0.06303 [     5]: 11122
      0.06295 [    23]: 22012
      0.05942 [    17]: 21022
      0.04275 [    13]: 12220
      0.03456 [    18]: 21112
      0.03435 [    28]: 22201
      0.03368 [     3]: 02221
      0.03009 [     7]: 11221
      0.02818 [    24]: 22021
      0.02704 [    22]: 21220
      0.02437 [    11]: 12202
      0.02028 [     0]: 01222
      0.01620 [     8]: 12022
      0.01606 [    27]: 22120
      0.01603 [    14]: 20122
      0.01254 [     4]: 10222
      0.01220 [     6]: 11212
      0.01068 [    12]: 12211
      0.00986 [    15]: 20212
      0.00964 [    21]: 21211
      0.00631 [    10]: 12121
      0.00397 [     1]: 02122
ROOT  18:  E=   -2914.4760050616 Eh  2.804 eV  22614.2 cm**-1
      0.16472 [     0]: 01222
      0.11827 [     5]: 11122
      0.11115 [    19]: 21121
      0.07970 [     7]: 11221
      0.07351 [    17]: 21022
      0.05980 [     2]: 02212
      0.05922 [    24]: 22021
      0.05699 [    23]: 22012
      0.05112 [     9]: 12112
      0.04800 [     3]: 02221
      0.04347 [     8]: 12022
      0.02992 [    13]: 12220
      0.02359 [     1]: 02122
      0.00963 [    10]: 12121
      0.00951 [    27]: 22120
      0.00925 [    29]: 22210
      0.00902 [    12]: 12211
      0.00887 [    28]: 22201
      0.00682 [    15]: 20212
      0.00493 [    16]: 20221
      0.00446 [    14]: 20122
      0.00436 [    22]: 21220
      0.00309 [    20]: 21202
      0.00265 [    25]: 22102
ROOT  19:  E=   -2914.4665685656 Eh  3.061 eV  24685.2 cm**-1
      0.18238 [    25]: 22102
      0.16792 [    10]: 12121
      0.13242 [     4]: 10222
      0.10830 [    13]: 12220
      0.07916 [    14]: 20122
      0.04814 [    20]: 21202
      0.04810 [    11]: 12202
      0.03733 [    29]: 22210
      0.03577 [     9]: 12112
      0.02346 [     5]: 11122
      0.01904 [     3]: 02221
      0.01632 [    26]: 22111
      0.01585 [    23]: 22012
      0.01421 [    12]: 12211
      0.01330 [    24]: 22021
      0.01102 [    18]: 21112
      0.00972 [    21]: 21211
      0.00571 [     6]: 11212
      0.00558 [     0]: 01222
      0.00475 [     8]: 12022
      0.00453 [    17]: 21022
      0.00382 [    22]: 21220
      0.00347 [    15]: 20212
      0.00312 [     1]: 02122
      0.00308 [     7]: 11221
      0.00283 [    27]: 22120
ROOT  20:  E=   -2914.4653998447 Eh  3.092 eV  24941.8 cm**-1
      0.17243 [    18]: 21112
      0.12099 [    12]: 12211
      0.09848 [    23]: 22012
      0.07603 [    27]: 22120
      0.07039 [     3]: 02221
      0.06062 [     8]: 12022
      0.05869 [     2]: 02212
      0.04524 [     1]: 02122
      0.04506 [    16]: 20221
      0.03210 [    10]: 12121
      0.02921 [     6]: 11212
      0.02435 [     9]: 12112
      0.02416 [    25]: 22102
      0.02036 [     0]: 01222
      0.01956 [    24]: 22021
      0.01952 [    14]: 20122
      0.01210 [     4]: 10222
      0.01156 [    19]: 21121
      0.01029 [     5]: 11122
      0.01003 [    22]: 21220
      0.00921 [    21]: 21211
      0.00630 [    26]: 22111
      0.00558 [    29]: 22210
      0.00538 [    28]: 22201
      0.00458 [    13]: 12220
      0.00380 [    20]: 21202
ROOT  21:  E=   -2914.4565038416 Eh  3.334 eV  26894.2 cm**-1
      0.15107 [    26]: 22111
      0.12355 [     5]: 11122
      0.10952 [    18]: 21112
      0.07073 [     7]: 11221
      0.06291 [     9]: 12112
      0.06079 [    19]: 21121
      0.05226 [    22]: 21220
      0.04924 [     8]: 12022
      0.04433 [    28]: 22201
      0.03653 [     6]: 11212
      0.03346 [    20]: 21202
      0.03029 [     1]: 02122
      0.02411 [    29]: 22210
      0.01830 [    15]: 20212
      0.01750 [    12]: 12211
      0.01740 [    14]: 20122
      0.01609 [    21]: 21211
      0.01339 [    24]: 22021
      0.01089 [    13]: 12220
      0.01048 [    27]: 22120
      0.00899 [     2]: 02212
      0.00841 [    11]: 12202
      0.00812 [    23]: 22012
      0.00792 [    17]: 21022
      0.00714 [     3]: 02221
ROOT  22:  E=   -2914.4370681020 Eh  3.863 eV  31159.9 cm**-1
      0.19784 [    12]: 12211
      0.13518 [     9]: 12112
      0.12211 [    10]: 12121
      0.11262 [    24]: 22021
      0.05437 [     2]: 02212
      0.04551 [     1]: 02122
      0.03985 [    22]: 21220
      0.03904 [    20]: 21202
      0.03700 [    21]: 21211
      0.03671 [     3]: 02221
      0.02925 [    18]: 21112
      0.02274 [     6]: 11212
      0.01897 [    26]: 22111
      0.01649 [    19]: 21121
      0.01617 [     5]: 11122
      0.01392 [    15]: 20212
      0.01378 [    13]: 12220
      0.01300 [    16]: 20221
      0.00745 [    17]: 21022
      0.00703 [    14]: 20122
      0.00566 [    11]: 12202
      0.00489 [    29]: 22210
      0.00476 [     7]: 11221
ROOT  23:  E=   -2914.4363284236 Eh  3.883 eV  31322.2 cm**-1
      0.08466 [     9]: 12112
      0.08027 [    24]: 22021
      0.07648 [    28]: 22201
      0.07581 [    10]: 12121
      0.07182 [    11]: 12202
      0.06917 [    18]: 21112
      0.06356 [     7]: 11221
      0.06240 [    17]: 21022
      0.06073 [     1]: 02122
      0.04262 [    12]: 12211
      0.04071 [    19]: 21121
      0.04037 [     8]: 12022
      0.03187 [     6]: 11212
      0.02827 [    26]: 22111
      0.02574 [    23]: 22012
      0.01796 [    27]: 22120
      0.01711 [    25]: 22102
      0.01700 [    15]: 20212
      0.01524 [     3]: 02221
      0.01348 [    29]: 22210
      0.01130 [     2]: 02212
      0.00944 [     5]: 11122
      0.00816 [    14]: 20122
      0.00802 [    16]: 20221
      0.00701 [    21]: 21211
      0.00633 [    22]: 21220
      0.00606 [    13]: 12220
      0.00421 [     0]: 01222
      0.00303 [     4]: 10222
ROOT  24:  E=   -2914.4346372629 Eh  3.929 eV  31693.4 cm**-1
      0.15137 [     7]: 11221
      0.13030 [    17]: 21022
      0.08926 [    23]: 22012
      0.06870 [    10]: 12121
      0.06391 [    18]: 21112
      0.06190 [    26]: 22111
      0.04834 [    24]: 22021
      0.04514 [     3]: 02221
      0.04298 [     8]: 12022
      0.04087 [     0]: 01222
      0.03400 [     6]: 11212
      0.03197 [     2]: 02212
      0.03093 [    21]: 21211
      0.02671 [     4]: 10222
      0.02212 [     9]: 12112
      0.02111 [    16]: 20221
      0.02000 [     5]: 11122
      0.01324 [    11]: 12202
      0.01266 [    12]: 12211
      0.01258 [    19]: 21121
      0.01138 [    27]: 22120
      0.00855 [    22]: 21220
      0.00453 [     1]: 02122
      0.00356 [    15]: 20212
ROOT  25:  E=   -2914.4273793210 Eh  4.127 eV  33286.3 cm**-1
      0.15154 [     5]: 11122
      0.13793 [     7]: 11221
      0.11666 [     3]: 02221
      0.10516 [    10]: 12121
      0.06467 [    18]: 21112
      0.05314 [    13]: 12220
      0.04988 [    21]: 21211
      0.04483 [    24]: 22021
      0.04127 [     6]: 11212
      0.03343 [     9]: 12112
      0.03102 [     1]: 02122
      0.02543 [     4]: 10222
      0.02381 [    12]: 12211
      0.02352 [    14]: 20122
      0.01920 [    16]: 20221
      0.01737 [    19]: 21121
      0.01249 [     0]: 01222
      0.01146 [     2]: 02212
      0.01063 [    23]: 22012
      0.00826 [    17]: 21022
      0.00475 [    15]: 20212
      0.00298 [    26]: 22111
      0.00289 [    29]: 22210
ROOT  26:  E=   -2914.4259413301 Eh  4.166 eV  33601.9 cm**-1
      0.12306 [     5]: 11122
      0.11761 [    14]: 20122
      0.09891 [     1]: 02122
      0.07795 [    19]: 21121
      0.07655 [     3]: 02221
      0.07287 [     7]: 11221
      0.06832 [    16]: 20221
      0.05248 [     4]: 10222
      0.04168 [    26]: 22111
      0.03954 [    20]: 21202
      0.03004 [    17]: 21022
      0.02894 [    28]: 22201
      0.02343 [    24]: 22021
      0.02151 [     6]: 11212
      0.01765 [    18]: 21112
      0.01539 [     0]: 01222
      0.01500 [    27]: 22120
      0.01415 [    10]: 12121
      0.01301 [    29]: 22210
      0.01145 [    23]: 22012
      0.00908 [     9]: 12112
      0.00861 [     8]: 12022
      0.00651 [    22]: 21220
      0.00478 [    21]: 21211
      0.00365 [    11]: 12202
      0.00326 [     2]: 02212
ROOT  27:  E=   -2914.4224221461 Eh  4.262 eV  34374.3 cm**-1
      0.30125 [    10]: 12121
      0.10368 [    26]: 22111
      0.09774 [    25]: 22102
      0.08795 [     8]: 12022
      0.04987 [     0]: 01222
      0.04789 [     9]: 12112
      0.04316 [    11]: 12202
      0.03780 [     1]: 02122
      0.03752 [    13]: 12220
      0.03327 [    17]: 21022
      0.02975 [     6]: 11212
      0.02859 [    18]: 21112
      0.01913 [     5]: 11122
      0.01618 [    19]: 21121
      0.01377 [    27]: 22120
      0.00999 [    24]: 22021
      0.00913 [    23]: 22012
      0.00721 [    16]: 20221
      0.00684 [    29]: 22210
      0.00401 [     2]: 02212
      0.00401 [    15]: 20212
      0.00302 [    12]: 12211
ROOT  28:  E=   -2914.4199731639 Eh  4.329 eV  34911.8 cm**-1
      0.09958 [    26]: 22111
      0.09480 [    12]: 12211
      0.08882 [    21]: 21211
      0.07934 [    19]: 21121
      0.07608 [     9]: 12112
      0.07227 [    18]: 21112
      0.06817 [     5]: 11122
      0.06137 [    29]: 22210
      0.05677 [    24]: 22021
      0.04009 [    23]: 22012
      0.03789 [    15]: 20212
      0.03293 [     6]: 11212
      0.03267 [    22]: 21220
      0.02704 [     0]: 01222
      0.02152 [    28]: 22201
      0.01928 [    14]: 20122
      0.01338 [     8]: 12022
      0.01276 [     4]: 10222
      0.01000 [    17]: 21022
      0.00814 [    13]: 12220
      0.00704 [    10]: 12121
      0.00677 [    27]: 22120
      0.00599 [    16]: 20221
      0.00591 [    20]: 21202
      0.00550 [    11]: 12202
      0.00517 [     2]: 02212
      0.00471 [     7]: 11221
      0.00331 [     3]: 02221
      0.00266 [    25]: 22102
ROOT  29:  E=   -2914.4139175605 Eh  4.493 eV  36240.8 cm**-1
      0.17737 [    26]: 22111
      0.12031 [    19]: 21121
      0.10814 [    12]: 12211
      0.07809 [     7]: 11221
      0.07194 [    29]: 22210
      0.06977 [    28]: 22201
      0.06011 [    14]: 20122
      0.04371 [    18]: 21112
      0.03605 [     4]: 10222
      0.03601 [    25]: 22102
      0.03217 [     6]: 11212
      0.02181 [     1]: 02122
      0.01815 [    21]: 21211
      0.01780 [     9]: 12112
      0.01713 [    10]: 12121
      0.01510 [     5]: 11122
      0.01402 [    22]: 21220
      0.01216 [    11]: 12202
      0.00995 [    24]: 22021
      0.00943 [     0]: 01222
      0.00852 [    16]: 20221
      0.00804 [    17]: 21022
      0.00587 [    15]: 20212
      0.00317 [     2]: 02212
ROOT  30:  E=   -2914.4125058032 Eh  4.532 eV  36550.7 cm**-1
      0.11860 [    21]: 21211
      0.11396 [    19]: 21121
      0.09812 [    27]: 22120
      0.08462 [    18]: 21112
      0.06594 [    28]: 22201
      0.05944 [    25]: 22102
      0.05379 [     9]: 12112
      0.05209 [    10]: 12121
      0.04293 [     5]: 11122
      0.03916 [     7]: 11221
      0.03824 [     6]: 11212
      0.03167 [    13]: 12220
      0.03101 [    12]: 12211
      0.02986 [    11]: 12202
      0.02772 [    17]: 21022
      0.02301 [    15]: 20212
      0.02171 [    24]: 22021
      0.01960 [    29]: 22210
      0.01397 [     1]: 02122
      0.00859 [    16]: 20221
      0.00735 [    14]: 20122
      0.00433 [    26]: 22111
      0.00399 [     4]: 10222
      0.00385 [     8]: 12022
      0.00309 [    20]: 21202
ROOT  31:  E=   -2914.3890433787 Eh  5.170 eV  41700.1 cm**-1
      0.15281 [    17]: 21022
      0.13525 [     9]: 12112
      0.09561 [    23]: 22012
      0.08682 [     0]: 01222
      0.08586 [    20]: 21202
      0.05543 [    26]: 22111
      0.05138 [    19]: 21121
      0.05034 [    16]: 20221
      0.03554 [    21]: 21211
      0.02907 [     1]: 02122
      0.02592 [     4]: 10222
      0.02468 [    15]: 20212
      0.02367 [    25]: 22102
      0.02332 [     3]: 02221
      0.02143 [     7]: 11221
      0.01998 [    10]: 12121
      0.01741 [     5]: 11122
      0.01365 [    22]: 21220
      0.00997 [     8]: 12022
      0.00925 [    27]: 22120
      0.00794 [    24]: 22021
      0.00532 [    18]: 21112
      0.00485 [    13]: 12220
      0.00468 [    14]: 20122
      0.00460 [     2]: 02212
      0.00323 [     6]: 11212
ROOT  32:  E=   -2914.3703011844 Eh  5.680 eV  45813.5 cm**-1
      0.19956 [     8]: 12022
      0.09259 [     5]: 11122
      0.08795 [     6]: 11212
      0.05931 [    21]: 21211
      0.05625 [    16]: 20221
      0.05580 [    26]: 22111
      0.05151 [    19]: 21121
      0.04975 [    18]: 21112
      0.04482 [    11]: 12202
      0.04011 [    15]: 20212
      0.03945 [    29]: 22210
      0.03595 [     1]: 02122
      0.02950 [     7]: 11221
      0.02868 [     4]: 10222
      0.01839 [    22]: 21220
      0.01645 [     9]: 12112
      0.01620 [    17]: 21022
      0.01565 [    28]: 22201
      0.01296 [    12]: 12211
      0.01253 [     2]: 02212
      0.01229 [    23]: 22012
      0.01039 [    27]: 22120
      0.00674 [    14]: 20122
ROOT  33:  E=   -2914.3465311259 Eh  6.327 eV  51030.4 cm**-1
      0.22085 [    28]: 22201
      0.10379 [    21]: 21211
      0.07419 [    29]: 22210
      0.06398 [    20]: 21202
      0.06196 [    26]: 22111
      0.05900 [    12]: 12211
      0.05264 [    23]: 22012
      0.05062 [    24]: 22021
      0.03661 [     3]: 02221
      0.03605 [    25]: 22102
      0.03497 [     2]: 02212
      0.02973 [    11]: 12202
      0.02630 [     7]: 11221
      0.02388 [    16]: 20221
      0.02057 [    17]: 21022
      0.01962 [     9]: 12112
      0.01490 [     0]: 01222
      0.01275 [     6]: 11212
      0.01230 [     5]: 11122
      0.00950 [    19]: 21121
      0.00789 [    15]: 20212
      0.00636 [    22]: 21220
      0.00560 [     1]: 02122
      0.00523 [    10]: 12121
      0.00318 [     8]: 12022
ROOT  34:  E=   -2914.3322297948 Eh  6.716 eV  54169.2 cm**-1
      0.17717 [    23]: 22012
      0.08397 [    21]: 21211
      0.08226 [     9]: 12112
      0.07465 [    25]: 22102
      0.06520 [     2]: 02212
      0.06187 [    12]: 12211
      0.05998 [    15]: 20212
      0.05348 [     1]: 02122
      0.05323 [    24]: 22021
      0.05102 [     8]: 12022
      0.04843 [    26]: 22111
      0.02863 [    16]: 20221
      0.01869 [    11]: 12202
      0.01806 [    28]: 22201
      0.01654 [    19]: 21121
      0.01581 [     3]: 02221
      0.01536 [    20]: 21202
      0.01247 [    14]: 20122
      0.01130 [    22]: 21220
      0.01067 [     5]: 11122
      0.00939 [    17]: 21022
      0.00731 [     0]: 01222
      0.00694 [    29]: 22210
      0.00651 [    10]: 12121
ROOT  35:  E=   -2914.3032190737 Eh  7.506 eV  60536.3 cm**-1
[...]
 -2914.346595421   0.000000000000
 -2914.332005899   0.000000000000
 -2914.303068131   0.000000000000
 -2913.957090934   0.000000000000
 -2913.952427488   0.000000000000
 -2913.926812078   0.000000000000
 -2913.890282179   0.000000000000
   CI-PROBLEM SOLVED
   DENSITIES MADE
   E(CAS)= -2914.480630604 Eh DE=   -6.374185e-07
   --- Energy gap subspaces: Ext-Act = 0.675   Act-Int = 0.019
   --- current l-shift: Up(Ext-Act) = 0.32   Dn(Act-Int) = 0.98
   N(occ)=  1.40000 1.40000 1.40000 1.40000 1.40000
   ||g|| =     4.018619e-04 Max(G)=   -3.723469e-04 Rot=91,81
   --- Orbital Update [      DIIS]
   --- SFit(Active Orbitals)

MACRO-ITERATION  43: 
   --- Inactive Energy E0 = -2897.97400457 Eh
CI-ITERATION   0: 
 -2914.636796961   0.000000000000 (    0.01)
 -2914.629947418   0.000000000000
 -2914.590061838   0.000000000000
 -2914.573336184   0.000000000000
 -2914.534290145   0.000000000000
 -2914.527983153   0.000000000000
 -2914.509001123   0.000000000000
 -2914.499630727   0.000000000000
 -2914.479574871   0.000000000000
 -2914.455641038   0.000000000000
   CI-PROBLEM SOLVED
   DENSITIES MADE
CI-ITERATION   0: 
 -2914.578911047   0.000000000000 (    0.01)
 -2914.574147807   0.000000000000
 -2914.572046367   0.000000000000
 -2914.562019004   0.000000000000
 -2914.551049629   0.000000000000
 -2914.550865250   0.000000000000
 -2914.542628058   0.000000000000
 -2914.535983467   0.000000000000
 -2914.535262069   0.000000000000
 -2914.529400631   0.000000000000
 -2914.518813538   0.000000000000
 -2914.518170954   0.000000000000
 -2914.514263229   0.000000000000
 -2914.505834759   0.000000000000
 -2914.504888150   0.000000000000
 -2914.488384880   0.000000000000
 -2914.481161696   0.000000000000
 -2914.477978830   0.000000000000
 -2914.475996673   0.000000000000
 -2914.465822134   0.000000000000
 -2914.464741497   0.000000000000
 -2914.456220360   0.000000000000
 -2914.437032644   0.000000000000
 -2914.436347947   0.000000000000
 -2914.435287909   0.000000000000
 -2914.427271530   0.000000000000
 -2914.426170788   0.000000000000
 -2914.422292603   0.000000000000
 -2914.420899508   0.000000000000
 -2914.414127006   0.000000000000
 -2914.413225436   0.000000000000
 -2914.389534478   0.000000000000
 -2914.370337872   0.000000000000
 -2914.346595939   0.000000000000
 -2914.332004431   0.000000000000
 -2914.303067179   0.000000000000
 -2913.957091015   0.000000000000
 -2913.952425003   0.000000000000
 -2913.926811516   0.000000000000
 -2913.890284166   0.000000000000
   CI-PROBLEM SOLVED
   DENSITIES MADE
   E(CAS)= -2914.480630635 Eh DE=   -3.161222e-08
   --- Energy gap subspaces: Ext-Act = 0.675   Act-Int = 0.019
   --- current l-shift: Up(Ext-Act) = 0.32   Dn(Act-Int) = 0.98
   N(occ)=  1.40000 1.40000 1.40000 1.40000 1.40000
   ||g|| =     3.989472e-04 Max(G)=    3.722378e-04 Rot=91,81
   --- Orbital Update [      DIIS]
   --- SFit(Active Orbitals)

MACRO-ITERATION  44: 
   --- Inactive Energy E0 = -2897.97405897 Eh
CI-ITERATION   0: 
 -2914.636796216   0.000000000000 (    0.01)
 -2914.629952497   0.000000000000
 -2914.590027246   0.000000000000
 -2914.573378405   0.000000000000
 -2914.534281128   0.000000000000
 -2914.527991200   0.000000000000
 -2914.509005334   0.000000000000
 -2914.499578211   0.000000000000
 -2914.479630992   0.000000000000
 -2914.455625399   0.000000000000
   CI-PROBLEM SOLVED
   DENSITIES MADE
CI-ITERATION   0: 
 -2914.578904740   0.000000000000 (    0.01)
 -2914.574150437   0.000000000000
 -2914.572049963   0.000000000000
 -2914.561999186   0.000000000000
 -2914.551039426   0.000000000000
 -2914.550860958   0.000000000000
 -2914.542614542   0.000000000000
 -2914.535984524   0.000000000000
 -2914.535257496   0.000000000000
 -2914.529400625   0.000000000000
 -2914.518811811   0.000000000000
 -2914.518165282   0.000000000000
 -2914.514252865   0.000000000000
 -2914.505848749   0.000000000000
 -2914.504887457   0.000000000000
 -2914.488414174   0.000000000000
 -2914.481157934   0.000000000000
 -2914.477986758   0.000000000000
 -2914.475996309   0.000000000000
 -2914.465787770   0.000000000000
 -2914.464711802   0.000000000000
 -2914.456207549   0.000000000000
 -2914.437031336   0.000000000000
 -2914.436349289   0.000000000000
 -2914.435318203   0.000000000000
 -2914.427266902   0.000000000000
 -2914.426180900   0.000000000000
 -2914.422286458   0.000000000000
 -2914.420940855   0.000000000000
 -2914.414137079   0.000000000000
 -2914.413257611   0.000000000000
 -2914.389555383   0.000000000000
 -2914.370339471   0.000000000000
 -2914.346599762   0.000000000000
 -2914.331994876   0.000000000000
 -2914.303060519   0.000000000000
 -2913.957091910   0.000000000000
 -2913.952408390   0.000000000000
 -2913.926807784   0.000000000000
 -2913.890298666   0.000000000000
   CI-PROBLEM SOLVED
   DENSITIES MADE
   E(CAS)= -2914.480631028 Eh DE=   -3.928521e-07
   --- Energy gap subspaces: Ext-Act = 0.675   Act-Int = 0.019
   --- current l-shift: Up(Ext-Act) = 0.32   Dn(Act-Int) = 0.98
   N(occ)=  1.40000 1.40000 1.40000 1.40000 1.40000
   ||g|| =     4.100781e-04 Max(G)=   -3.707042e-04 Rot=91,81
   --- Orbital Update [      DIIS]
   --- SFit(Active Orbitals)

MACRO-ITERATION  45: 
   --- Inactive Energy E0 = -2897.97430475 Eh
CI-ITERATION   0: 
 -2914.636792754   0.000000000000 (    0.00)
 -2914.629975677   0.000000000000
 -2914.589861018   0.000000000000
 -2914.573582341   0.000000000000
 -2914.534238621   0.000000000000
 -2914.528029522   0.000000000000
 -2914.509025156   0.000000000000
 -2914.499325215   0.000000000000
 -2914.479902154   0.000000000000
 -2914.455552055   0.000000000000
   CI-PROBLEM SOLVED
   DENSITIES MADE
CI-ITERATION   0: 
 -2914.578874225   0.000000000000 (    0.01)
 -2914.574163186   0.000000000000
 -2914.572067195   0.000000000000
 -2914.561903575   0.000000000000
 -2914.550990338   0.000000000000
 -2914.550840743   0.000000000000
 -2914.542548962   0.000000000000
 -2914.535998655   0.000000000000
 -2914.535235201   0.000000000000
 -2914.529390380   0.000000000000
 -2914.518803620   0.000000000000
 -2914.518138628   0.000000000000
 -2914.514203542   0.000000000000
 -2914.505915116   0.000000000000
 -2914.504883482   0.000000000000
 -2914.488555163   0.000000000000
 -2914.481140317   0.000000000000
 -2914.478024563   0.000000000000
 -2914.475994779   0.000000000000
 -2914.465622516   0.000000000000
 -2914.464569255   0.000000000000
 -2914.456146869   0.000000000000
 -2914.437025109   0.000000000000
 -2914.436358201   0.000000000000
 -2914.435465204   0.000000000000
 -2914.427243839   0.000000000000
 -2914.426228916   0.000000000000
 -2914.422257750   0.000000000000
 -2914.421138239   0.000000000000
 -2914.414185226   0.000000000000
 -2914.413411296   0.000000000000
 -2914.389655602   0.000000000000
 -2914.370347315   0.000000000000
 -2914.346618878   0.000000000000
 -2914.331951830   0.000000000000
 -2914.303029245   0.000000000000
 -2913.957091639   0.000000000000
 -2913.952326671   0.000000000000
 -2913.926790687   0.000000000000
 -2913.890368601   0.000000000000
   CI-PROBLEM SOLVED
   DENSITIES MADE
   E(CAS)= -2914.480633033 Eh DE=   -2.004317e-06
   --- Energy gap subspaces: Ext-Act = 0.675   Act-Int = 0.019
   --- current l-shift: Up(Ext-Act) = 0.32   Dn(Act-Int) = 0.98
   N(occ)=  1.40000 1.40000 1.40000 1.40000 1.40000
   ||g|| =     4.399227e-04 Max(G)=   -3.639666e-04 Rot=91,81
   --- Orbital Update [      DIIS]
   --- SFit(Active Orbitals)

MACRO-ITERATION  46: 
   --- Inactive Energy E0 = -2897.97470745 Eh
CI-ITERATION   0: 
 -2914.636786799   0.000000000000 (    0.00)
 -2914.630009621   0.000000000000
 -2914.589597549   0.000000000000
 -2914.573906722   0.000000000000
 -2914.534171168   0.000000000000
 -2914.528088593   0.000000000000
 -2914.509056610   0.000000000000
 -2914.498923869   0.000000000000
 -2914.480327811   0.000000000000
 -2914.455442410   0.000000000000
   CI-PROBLEM SOLVED
   DENSITIES MADE
CI-ITERATION   0: 
 -2914.578825597   0.000000000000 (    0.01)
 -2914.574183074   0.000000000000
 -2914.572093989   0.000000000000
 -2914.561752565   0.000000000000
 -2914.550912885   0.000000000000
 -2914.550810764   0.000000000000
 -2914.542444020   0.000000000000
 -2914.536050362   0.000000000000
 -2914.535198997   0.000000000000
 -2914.529339003   0.000000000000
 -2914.518791066   0.000000000000
 -2914.518098863   0.000000000000
 -2914.514127576   0.000000000000
 -2914.506018069   0.000000000000
 -2914.504876084   0.000000000000
 -2914.488777606   0.000000000000
 -2914.481112722   0.000000000000
 -2914.478082847   0.000000000000
 -2914.475991697   0.000000000000
 -2914.465360128   0.000000000000
 -2914.464344830   0.000000000000
 -2914.456052312   0.000000000000
 -2914.437017294   0.000000000000
 -2914.436380848   0.000000000000
 -2914.435695170   0.000000000000
 -2914.427207492   0.000000000000
 -2914.426302161   0.000000000000
 -2914.422211784   0.000000000000
 -2914.421446497   0.000000000000
 -2914.414263072   0.000000000000
 -2914.413652351   0.000000000000
 -2914.389809283   0.000000000000
 -2914.370359431   0.000000000000
 -2914.346651553   0.000000000000
 -2914.331886787   0.000000000000
 -2914.302980979   0.000000000000
 -2913.957094945   0.000000000000
 -2913.952199432   0.000000000000
 -2913.926764313   0.000000000000
 -2913.890481597   0.000000000000
   CI-PROBLEM SOLVED
   DENSITIES MADE
   E(CAS)= -2914.480636183 Eh DE=   -3.150626e-06
   --- Energy gap subspaces: Ext-Act = 0.675   Act-Int = 0.019
   --- current l-shift: Up(Ext-Act) = 0.32   Dn(Act-Int) = 0.98
   N(occ)=  1.40000 1.40000 1.40000 1.40000 1.40000
   ||g|| =     4.066588e-04 Max(G)=    3.543477e-04 Rot=91,81
   --- Orbital Update [      DIIS]
   --- SFit(Active Orbitals)

MACRO-ITERATION  47: 
   --- Inactive Energy E0 = -2897.97509096 Eh
CI-ITERATION   0: 
 -2914.636782276   0.000000000000 (    0.00)
 -2914.630037862   0.000000000000
 -2914.589360865   0.000000000000
 -2914.574201919   0.000000000000
 -2914.534110302   0.000000000000
 -2914.528140171   0.000000000000
 -2914.509084298   0.000000000000
 -2914.498559039   0.000000000000
 -2914.480709501   0.000000000000
 -2914.455347765   0.000000000000
   CI-PROBLEM SOLVED
   DENSITIES MADE
CI-ITERATION   0: 
 -2914.578781470   0.000000000000 (    0.01)
 -2914.574200711   0.000000000000
 -2914.572118204   0.000000000000
 -2914.561617262   0.000000000000
 -2914.550844762   0.000000000000
 -2914.550785505   0.000000000000
 -2914.542349213   0.000000000000
 -2914.536127838   0.000000000000
 -2914.535165624   0.000000000000
 -2914.529257893   0.000000000000
 -2914.518781954   0.000000000000
 -2914.518067323   0.000000000000
 -2914.514060986   0.000000000000
 -2914.506108323   0.000000000000
 -2914.504868394   0.000000000000
 -2914.488979006   0.000000000000
 -2914.481087821   0.000000000000
 -2914.478133496   0.000000000000
 -2914.475989016   0.000000000000
 -2914.465122442   0.000000000000
 -2914.464142823   0.000000000000
 -2914.455968137   0.000000000000
 -2914.437011057   0.000000000000
 -2914.436420100   0.000000000000
 -2914.435889390   0.000000000000
 -2914.427174846   0.000000000000
 -2914.426366578   0.000000000000
 -2914.422168602   0.000000000000
 -2914.421719527   0.000000000000
 -2914.414334406   0.000000000000
 -2914.413866857   0.000000000000
 -2914.389943605   0.000000000000
 -2914.370370962   0.000000000000
 -2914.346684796   0.000000000000
 -2914.331833018   0.000000000000
 -2914.302938340   0.000000000000
 -2913.957093669   0.000000000000
 -2913.952079847   0.000000000000
 -2913.926739698   0.000000000000
 -2913.890580053   0.000000000000
   CI-PROBLEM SOLVED
   DENSITIES MADE
   E(CAS)= -2914.480638869 Eh DE=   -2.686058e-06
   --- Energy gap subspaces: Ext-Act = 0.675   Act-Int = 0.019
   --- current l-shift: Up(Ext-Act) = 0.32   Dn(Act-Int) = 0.98
   N(occ)=  1.40000 1.40000 1.40000 1.40000 1.40000
   ||g|| =     4.089963e-04 Max(G)=   -3.457466e-04 Rot=91,81
   --- Orbital Update [      DIIS]
   --- SFit(Active Orbitals)

MACRO-ITERATION  48: 
   --- Inactive Energy E0 = -2897.97506847 Eh
CI-ITERATION   0: 
 -2914.636782582   0.000000000000 (    0.00)
 -2914.630037798   0.000000000000
 -2914.589348301   0.000000000000
 -2914.574215687   0.000000000000
 -2914.534108726   0.000000000000
 -2914.528142690   0.000000000000
 -2914.509086844   0.000000000000
 -2914.498542410   0.000000000000
 -2914.480727995   0.000000000000
 -2914.455343858   0.000000000000
   CI-PROBLEM SOLVED
   DENSITIES MADE
CI-ITERATION   0: 
 -2914.578779617   0.000000000000 (    0.01)
 -2914.574201660   0.000000000000
 -2914.572120173   0.000000000000
 -2914.561610716   0.000000000000
 -2914.550840944   0.000000000000
 -2914.550783710   0.000000000000
 -2914.542344481   0.000000000000
 -2914.536132363   0.000000000000
 -2914.535163146   0.000000000000
 -2914.529252393   0.000000000000
 -2914.518780514   0.000000000000
 -2914.518064537   0.000000000000
 -2914.514057889   0.000000000000
 -2914.506112736   0.000000000000
 -2914.504868035   0.000000000000
 -2914.488987946   0.000000000000
 -2914.481087169   0.000000000000
 -2914.478135930   0.000000000000
 -2914.475989827   0.000000000000
 -2914.465110536   0.000000000000
 -2914.464132652   0.000000000000
 -2914.455964268   0.000000000000
 -2914.437011503   0.000000000000
 -2914.436422641   0.000000000000
 -2914.435898779   0.000000000000
 -2914.427174344   0.000000000000
 -2914.426370456   0.000000000000
 -2914.422167075   0.000000000000
 -2914.421732238   0.000000000000
 -2914.414337677   0.000000000000
 -2914.413876784   0.000000000000
 -2914.389949792   0.000000000000
 -2914.370371488   0.000000000000
 -2914.346683907   0.000000000000
 -2914.331829670   0.000000000000
 -2914.302936652   0.000000000000
 -2913.957090641   0.000000000000
 -2913.952075273   0.000000000000
 -2913.926737501   0.000000000000
 -2913.890586661   0.000000000000
   CI-PROBLEM SOLVED
   DENSITIES MADE
   E(CAS)= -2914.480639024 Eh DE=   -1.543776e-07
   --- Energy gap subspaces: Ext-Act = 0.675   Act-Int = 0.019
   --- current l-shift: Up(Ext-Act) = 0.32   Dn(Act-Int) = 0.98
   N(occ)=  1.40000 1.40000 1.40000 1.40000 1.40000
   ||g|| =     7.604805e-04 Max(G)=    3.467079e-04 Rot=91,81
   --- Orbital Update [      DIIS]
   --- SFit(Active Orbitals)

MACRO-ITERATION  49: 
   --- Inactive Energy E0 = -2897.97509316 Eh
CI-ITERATION   0: 
 -2914.636780545   0.000000000000 (    0.01)
 -2914.630037152   0.000000000000
 -2914.589344291   0.000000000000
 -2914.574217059   0.000000000000
 -2914.534109585   0.000000000000
 -2914.528144630   0.000000000000
 -2914.509087179   0.000000000000
 -2914.498538940   0.000000000000
 -2914.480732595   0.000000000000
 -2914.455343084   0.000000000000
   CI-PROBLEM SOLVED
   DENSITIES MADE
CI-ITERATION   0: 
 -2914.578778999   0.000000000000 (    0.01)
 -2914.574201620   0.000000000000
 -2914.572119906   0.000000000000
 -2914.561608847   0.000000000000
 -2914.550839262   0.000000000000
 -2914.550782527   0.000000000000
 -2914.542343670   0.000000000000
 -2914.536132556   0.000000000000
 -2914.535162145   0.000000000000
 -2914.529251381   0.000000000000
 -2914.518778968   0.000000000000
 -2914.518063042   0.000000000000
 -2914.514056523   0.000000000000
 -2914.506112440   0.000000000000
 -2914.504866792   0.000000000000
 -2914.488988517   0.000000000000
 -2914.481087151   0.000000000000
 -2914.478136337   0.000000000000
 -2914.475989002   0.000000000000
 -2914.465108140   0.000000000000
 -2914.464130799   0.000000000000
 -2914.455964321   0.000000000000
 -2914.437010910   0.000000000000
 -2914.436423396   0.000000000000
 -2914.435900351   0.000000000000
 -2914.427174286   0.000000000000
 -2914.426371245   0.000000000000
 -2914.422165768   0.000000000000
 -2914.421733762   0.000000000000
 -2914.414337495   0.000000000000
 -2914.413877987   0.000000000000
 -2914.389951063   0.000000000000
 -2914.370369850   0.000000000000
 -2914.346682937   0.000000000000
 -2914.331827348   0.000000000000
 -2914.302936879   0.000000000000
 -2913.957097672   0.000000000000
 -2913.952079477   0.000000000000
 -2913.926745436   0.000000000000
 -2913.890592230   0.000000000000
   CI-PROBLEM SOLVED
   DENSITIES MADE
   E(CAS)= -2914.480639016 Eh DE=    7.686594e-09
   --- Energy gap subspaces: Ext-Act = 0.675   Act-Int = 0.019
   --- current l-shift: Up(Ext-Act) = 0.32   Dn(Act-Int) = 0.98
   N(occ)=  1.40000 1.40000 1.40000 1.40000 1.40000
   ||g|| =     3.828842e-04 Max(G)=    3.459049e-04 Rot=91,81
                     ---- THE CAS-SCF ENERGY   HAS CONVERGED ----
                            --- FINALIZING ORBITALS ---
                    ---- DOING ONE FINAL ITERATION FOR PRINTING ----
   --- d-orbitals (depends on the molecular axis frame)
 L-Center:  0 Co [-0.034, -2.539, 2.575] 
   --- The active space contains 4 d Orbitals : not OK
   --- The active space contains 1 s Orbitals : not OK
Error (ORCA_CASSCF): Orbitals Entering AILFT D-Case have a problem!
AILFT D-Case expects 5 d Orbitals
[file orca_casscf/cas_trafo.cpp, line 3653, Process 0]: Aborting Here
[file orca_casscf/cas_trafo.cpp, line 3653, Process 6]: Aborting Here
[file orca_casscf/cas_trafo.cpp, line 3653, Process 13]: Aborting Here
[file orca_casscf/cas_trafo.cpp, line 3653, Process 14]: Aborting Here
[file orca_casscf/cas_trafo.cpp, line 3653, Process 22]: Aborting Here
[file orca_casscf/cas_trafo.cpp, line 3653, Process 23]: Aborting Here
[file orca_casscf/cas_trafo.cpp, line 3653, Process 27]: Aborting Here
[file orca_casscf/cas_trafo.cpp, line 3653, Process 36]: Aborting Here
[file orca_casscf/cas_trafo.cpp, line 3653, Process 38]: Aborting Here
[file orca_casscf/cas_trafo.cpp, line 3653, Process 39]: Aborting Here
[file orca_casscf/cas_trafo.cpp, line 3653, Process 11]: Aborting Here
[file orca_casscf/cas_trafo.cpp, line 3653, Process 15]: Aborting Here
[file orca_casscf/cas_trafo.cpp, line 3653, Process 16]: Aborting Here
[file orca_casscf/cas_trafo.cpp, line 3653, Process 18]: Aborting Here
[file orca_casscf/cas_trafo.cpp, line 3653, Process 19]: Aborting Here
[file orca_casscf/cas_trafo.cpp, line 3653, Process 20]: Aborting Here
[file orca_casscf/cas_trafo.cpp, line 3653, Process 21]: Aborting Here
[file orca_casscf/cas_trafo.cpp, line 3653, Process 24]: Aborting Here
[file orca_casscf/cas_trafo.cpp, line 3653, Process 33]: Aborting Here
[file orca_casscf/cas_trafo.cpp, line 3653, Process 25]: Aborting Here
[file orca_casscf/cas_trafo.cpp, line 3653, Process 26]: Aborting Here
[file orca_casscf/cas_trafo.cpp, line 3653, Process 28]: Aborting Here
[file orca_casscf/cas_trafo.cpp, line 3653, Process 29]: Aborting Here
[file orca_casscf/cas_trafo.cpp, line 3653, Process 30]: Aborting Here
[file orca_casscf/cas_trafo.cpp, line 3653, Process 31]: Aborting Here
[file orca_casscf/cas_trafo.cpp, line 3653, Process 32]: Aborting Here
[file orca_casscf/cas_trafo.cpp, line 3653, Process 34]: Aborting Here
[file orca_casscf/cas_trafo.cpp, line 3653, Process 35]: Aborting Here
[file orca_casscf/cas_trafo.cpp, line 3653, Process 37]: Aborting Here
[file orca_casscf/cas_trafo.cpp, line 3653, Process 1]: Aborting Here
[file orca_casscf/cas_trafo.cpp, line 3653, Process 2]: Aborting Here
[file orca_casscf/cas_trafo.cpp, line 3653, Process 3]: Aborting Here
[file orca_casscf/cas_trafo.cpp, line 3653, Process 4]: Aborting Here
[file orca_casscf/cas_trafo.cpp, line 3653, Process 5]: Aborting Here
[file orca_casscf/cas_trafo.cpp, line 3653, Process 7]: Aborting Here
[file orca_casscf/cas_trafo.cpp, line 3653, Process 8]: Aborting Here
[file orca_casscf/cas_trafo.cpp, line 3653, Process 9]: Aborting Here
[file orca_casscf/cas_trafo.cpp, line 3653, Process 10]: Aborting Here
[file orca_casscf/cas_trafo.cpp, line 3653, Process 12]: Aborting Here
[file orca_casscf/cas_trafo.cpp, line 3653, Process 17]: Aborting Here

ORCA finished by error termination in CASSCF
Calling Command: mpirun -np 40  /apps/USE/easybuild/release/2023.1/software/ORCA/5.0.4-gompi-2023a/bin/orca_casscf_mpi rho.casinp.tmp rho 
[file orca_tools/qcmsg.cpp, line 465]: 
  .... aborting the run

