
                                 *****************
                                 * O   R   C   A *
                                 *****************

                                            #,                                       
                                            ###                                      
                                            ####                                     
                                            #####                                    
                                            ######                                   
                                           ########,                                 
                                     ,,################,,,,,                         
                               ,,#################################,,                 
                          ,,##########################################,,             
                       ,#########################################, ''#####,          
                    ,#############################################,,   '####,        
                  ,##################################################,,,,####,       
                ,###########''''           ''''###############################       
              ,#####''   ,,,,##########,,,,          '''####'''          '####       
            ,##' ,,,,###########################,,,                        '##       
           ' ,,###''''                  '''############,,,                           
         ,,##''                                '''############,,,,        ,,,,,,###''
      ,#''                                            '''#######################'''  
     '                                                          ''''####''''         
             ,#######,   #######,   ,#######,      ##                                
            ,#'     '#,  ##    ##  ,#'     '#,    #''#        ######   ,####,        
            ##       ##  ##   ,#'  ##            #'  '#       #        #'  '#        
            ##       ##  #######   ##           ,######,      #####,   #    #        
            '#,     ,#'  ##    ##  '#,     ,#' ,#      #,         ##   #,  ,#        
             '#######'   ##     ##  '#######'  #'      '#     #####' # '####'        



                  #######################################################
                  #                        -***-                        #
                  #          Department of theory and spectroscopy      #
                  #    Directorship and core code : Frank Neese         #
                  #        Max Planck Institute fuer Kohlenforschung    #
                  #                Kaiser Wilhelm Platz 1               #
                  #                 D-45470 Muelheim/Ruhr               #
                  #                      Germany                        #
                  #                                                     #
                  #                  All rights reserved                #
                  #                        -***-                        #
                  #######################################################


                         Program Version 5.0.4 -  RELEASE  -


 With contributions from (in alphabetic order):
   Daniel Aravena         : Magnetic Suceptibility
   Michael Atanasov       : Ab Initio Ligand Field Theory (pilot matlab implementation)
   Alexander A. Auer      : GIAO ZORA, VPT2 properties, NMR spectrum
   Ute Becker             : Parallelization
   Giovanni Bistoni       : ED, misc. LED, open-shell LED, HFLD
   Martin Brehm           : Molecular dynamics
   Dmytro Bykov           : SCF Hessian
   Vijay G. Chilkuri      : MRCI spin determinant printing, contributions to CSF-ICE
   Dipayan Datta          : RHF DLPNO-CCSD density
   Achintya Kumar Dutta   : EOM-CC, STEOM-CC
   Dmitry Ganyushin       : Spin-Orbit,Spin-Spin,Magnetic field MRCI
   Miquel Garcia          : C-PCM and meta-GGA Hessian, CC/C-PCM, Gaussian charge scheme
   Yang Guo               : DLPNO-NEVPT2, F12-NEVPT2, CIM, IAO-localization
   Andreas Hansen         : Spin unrestricted coupled pair/coupled cluster methods
   Benjamin Helmich-Paris : MC-RPA, TRAH-SCF, COSX integrals
   Lee Huntington         : MR-EOM, pCC
   Robert Izsak           : Overlap fitted RIJCOSX, COSX-SCS-MP3, EOM
   Marcus Kettner         : VPT2
   Christian Kollmar      : KDIIS, OOCD, Brueckner-CCSD(T), CCSD density, CASPT2, CASPT2-K
   Simone Kossmann        : Meta GGA functionals, TD-DFT gradient, OOMP2, MP2 Hessian
   Martin Krupicka        : Initial AUTO-CI
   Lucas Lang             : DCDCAS
   Marvin Lechner         : AUTO-CI (C++ implementation), FIC-MRCC
   Dagmar Lenk            : GEPOL surface, SMD
   Dimitrios Liakos       : Extrapolation schemes; Compound Job, initial MDCI parallelization
   Dimitrios Manganas     : Further ROCIS development; embedding schemes
   Dimitrios Pantazis     : SARC Basis sets
   Anastasios Papadopoulos: AUTO-CI, single reference methods and gradients
   Taras Petrenko         : DFT Hessian,TD-DFT gradient, ASA, ECA, R-Raman, ABS, FL, XAS/XES, NRVS
   Peter Pinski           : DLPNO-MP2, DLPNO-MP2 Gradient
   Christoph Reimann      : Effective Core Potentials
   Marius Retegan         : Local ZFS, SOC
   Christoph Riplinger    : Optimizer, TS searches, QM/MM, DLPNO-CCSD(T), (RO)-DLPNO pert. Triples
   Tobias Risthaus        : Range-separated hybrids, TD-DFT gradient, RPA, STAB
   Michael Roemelt        : Original ROCIS implementation
   Masaaki Saitow         : Open-shell DLPNO-CCSD energy and density
   Barbara Sandhoefer     : DKH picture change effects
   Avijit Sen             : IP-ROCIS
   Kantharuban Sivalingam : CASSCF convergence, NEVPT2, FIC-MRCI
   Bernardo de Souza      : ESD, SOC TD-DFT
   Georgi Stoychev        : AutoAux, RI-MP2 NMR, DLPNO-MP2 response
   Willem Van den Heuvel  : Paramagnetic NMR
   Boris Wezisla          : Elementary symmetry handling
   Frank Wennmohs         : Technical directorship


 We gratefully acknowledge several colleagues who have allowed us to
 interface, adapt or use parts of their codes:
   Stefan Grimme, W. Hujo, H. Kruse, P. Pracht,  : VdW corrections, initial TS optimization,
                  C. Bannwarth, S. Ehlert          DFT functionals, gCP, sTDA/sTD-DF
   Ed Valeev, F. Pavosevic, A. Kumar             : LibInt (2-el integral package), F12 methods
   Garnet Chan, S. Sharma, J. Yang, R. Olivares  : DMRG
   Ulf Ekstrom                                   : XCFun DFT Library
   Mihaly Kallay                                 : mrcc  (arbitrary order and MRCC methods)
   Jiri Pittner, Ondrej Demel                    : Mk-CCSD
   Frank Weinhold                                : gennbo (NPA and NBO analysis)
   Christopher J. Cramer and Donald G. Truhlar   : smd solvation model
   Lars Goerigk                                  : TD-DFT with DH, B97 family of functionals
   V. Asgeirsson, H. Jonsson                     : NEB implementation
   FAccTs GmbH                                   : IRC, NEB, NEB-TS, DLPNO-Multilevel, CI-OPT
                                                   MM, QMMM, 2- and 3-layer-ONIOM, Crystal-QMMM,
                                                   LR-CPCM, SF, NACMEs, symmetry and pop. for TD-DFT,
                                                   nearIR, NL-DFT gradient (VV10), updates on ESD,
                                                   ML-optimized integration grids
   S Lehtola, MJT Oliveira, MAL Marques          : LibXC Library
   Liviu Ungur et al                             : ANISO software


 Your calculation uses the libint2 library for the computation of 2-el integrals
 For citations please refer to: http://libint.valeyev.net

 Your ORCA version has been built with support for libXC version: 5.1.0
 For citations please refer to: https://tddft.org/programs/libxc/

 This ORCA versions uses:
   CBLAS   interface :  Fast vector & matrix operations
   LAPACKE interface :  Fast linear algebra routines
   SCALAPACK package :  Parallel linear algebra routines
   Shared memory     :  Shared parallel matrices
   BLAS/LAPACK       :  OpenBLAS 0.3.15  USE64BITINT DYNAMIC_ARCH NO_AFFINITY Zen SINGLE_THREADED
        Core in use  :  Zen
   Copyright (c) 2011-2014, The OpenBLAS Project




***************************************
The coordinates will be read from file: geo.xyz
***************************************


================================================================================

----- Orbital basis set information -----
Your calculation utilizes the basis: DKH-def2-TZVPP
   Exponents from def2-TZVPP [F. Weigend and R. Ahlrichs, Phys. Chem. Chem. Phys. 7, 3297 (2005)],
   recontracted for DKH2 by D. A. Pantazis.

----- AuxJ basis set information -----
Your calculation utilizes the AutoAux generation procedure.
  G. L. Stoychev, A. A. Auer, F. Neese, J. Chem. Theory Comput. 13, 554 (2017)

----- AuxC basis set information -----
Your calculation utilizes the AutoAux generation procedure.
  G. L. Stoychev, A. A. Auer, F. Neese, J. Chem. Theory Comput. 13, 554 (2017)

----- AuxJK basis set information -----
Your calculation utilizes the AutoAux generation procedure.
  G. L. Stoychev, A. A. Auer, F. Neese, J. Chem. Theory Comput. 13, 554 (2017)

================================================================================
                                        WARNINGS
                       Please study these warnings very carefully!
================================================================================


INFO   : the flag for use of the SHARK integral package has been found!

================================================================================
                                       INPUT FILE
================================================================================
NAME = rho.inp
|  1> !CASSCF  DKH DKH-def2-TZVPP  RIJCOSX NoSFitting VeryTightSCF autoaux moread SlowConv
|  2> %moinp "orb.gbw"
|  3> %pal
|  4> nprocs 10
|  5> end
|  6> %maxcore 4000
|  7> # swap
|  8> %scf
|  9>  Rotate
| 10>   { 34, 25 }
| 11>  end
| 12> end
| 13> #
| 14> %rel
| 15>  picturechange 2
| 16> end
| 17> %casscf
| 18>  nel  7
| 19>  norb 5
| 20>  mult 4,2
| 21>  nroots 10,40
| 22>  maxiter 100
| 23>  ActOrbs dOrbs
| 24>  rel
| 25>   printlevel 3
| 26>   dosoc true
| 27>   gtensor true
| 28>   quad true
| 29>  end
| 30> end
| 31> * xyzfile 0 4 geo.xyz *
| 32> 
| 33>                          ****END OF INPUT****
================================================================================

                       ****************************
                       * Single Point Calculation *
                       ****************************

---------------------------------
CARTESIAN COORDINATES (ANGSTROEM)
---------------------------------
  Co    -0.000000   -0.000000    0.000000
  C      1.867013   -0.000000    0.000000
  P      3.450511    0.000000   -0.000000
  C     -1.867013   -0.000000    0.000000
  P     -3.450511    0.000000   -0.000000

----------------------------
CARTESIAN COORDINATES (A.U.)
----------------------------
  NO LB      ZA    FRAG     MASS         X           Y           Z
   0 Co   27.0000    0    58.930   -0.000000   -0.000000    0.000000
   1 C     6.0000    0    12.011    3.528143   -0.000000    0.000000
   2 P    15.0000    0    30.974    6.520522    0.000000   -0.000000
   3 C     6.0000    0    12.011   -3.528143   -0.000000    0.000000
   4 P    15.0000    0    30.974   -6.520521    0.000000   -0.000000

--------------------------------
INTERNAL COORDINATES (ANGSTROEM)
--------------------------------
 Co     0   0   0     0.000000000000     0.00000000     0.00000000
 C      1   0   0     1.867012726597     0.00000000     0.00000000
 P      2   1   0     1.583498684481   179.99999791     0.00000000
 C      1   2   3     1.867012741404   179.99999852     0.00000000
 P      4   1   2     1.583498583368   179.99999809     0.00000000

---------------------------
INTERNAL COORDINATES (A.U.)
---------------------------
 Co     0   0   0     0.000000000000     0.00000000     0.00000000
 C      1   0   0     3.528142741814     0.00000000     0.00000000
 P      2   1   0     2.992378847094   179.99999791     0.00000000
 C      1   2   3     3.528142769795   179.99999852     0.00000000
 P      4   1   2     2.992378656018   179.99999809     0.00000000

---------------------
BASIS SET INFORMATION
---------------------
There are 3 groups of distinct atoms

 Group   1 Type Co  : 17s12p7d2f1g contracted to 10s7p4d2f1g pattern {8111111111/6111111/4111/11/1}
 Group   2 Type C   : 11s6p2d1f contracted to 6s3p2d1f pattern {611111/411/11/1}
 Group   3 Type P   : 14s9p3d1f contracted to 8s4p3d1f pattern {71111111/6111/111/1}

Atom   0Co   basis set group =>   1
Atom   1C    basis set group =>   2
Atom   2P    basis set group =>   3
Atom   3C    basis set group =>   2
Atom   4P    basis set group =>   3
---------------------------------
AUXILIARY/J BASIS SET INFORMATION
---------------------------------
There are 3 groups of distinct atoms

 Group   1 Type Co  : 22s18p17d17f16g6h3i contracted to 22s18p17d17f16g6h3i pattern {1111111111111111111111/111111111111111111/11111111111111111/11111111111111111/1111111111111111/111111/111}
 Group   2 Type C   : 16s13p12d7f3g contracted to 16s13p12d7f3g pattern {1111111111111111/1111111111111/111111111111/1111111/111}
 Group   3 Type P   : 19s16p15d9f5g contracted to 19s16p15d9f5g pattern {1111111111111111111/1111111111111111/111111111111111/111111111/11111}

Atom   0Co   basis set group =>   1
Atom   1C    basis set group =>   2
Atom   2P    basis set group =>   3
Atom   3C    basis set group =>   2
Atom   4P    basis set group =>   3
---------------------------------
AUXILIARY/C BASIS SET INFORMATION
---------------------------------
There are 3 groups of distinct atoms

 Group   1 Type Co  : 22s18p17d17f16g6h3i contracted to 22s18p17d17f16g6h3i pattern {1111111111111111111111/111111111111111111/11111111111111111/11111111111111111/1111111111111111/111111/111}
 Group   2 Type C   : 16s13p12d7f3g contracted to 16s13p12d7f3g pattern {1111111111111111/1111111111111/111111111111/1111111/111}
 Group   3 Type P   : 19s16p15d9f5g contracted to 19s16p15d9f5g pattern {1111111111111111111/1111111111111111/111111111111111/111111111/11111}

Atom   0Co   basis set group =>   1
Atom   1C    basis set group =>   2
Atom   2P    basis set group =>   3
Atom   3C    basis set group =>   2
Atom   4P    basis set group =>   3
----------------------------------
AUXILIARY/JK BASIS SET INFORMATION
----------------------------------
There are 3 groups of distinct atoms

 Group   1 Type Co  : 22s18p17d17f16g6h3i contracted to 22s18p17d17f16g6h3i pattern {1111111111111111111111/111111111111111111/11111111111111111/11111111111111111/1111111111111111/111111/111}
 Group   2 Type C   : 16s13p12d7f3g contracted to 16s13p12d7f3g pattern {1111111111111111/1111111111111/111111111111/1111111/111}
 Group   3 Type P   : 19s16p15d9f5g contracted to 19s16p15d9f5g pattern {1111111111111111111/1111111111111111/111111111111111/111111111/11111}

Atom   0Co   basis set group =>   1
Atom   1C    basis set group =>   2
Atom   2P    basis set group =>   3
Atom   3C    basis set group =>   2
Atom   4P    basis set group =>   3
mel0423:rank7.orca_gtoint_mpi: Failed to modify UD QP to INIT on mlx5_0: Operation not permitted
mel0423:rank6.orca_gtoint_mpi: Failed to modify UD QP to INIT on mlx5_0: Operation not permitted
mel0423:rank5.orca_gtoint_mpi: Failed to modify UD QP to INIT on mlx5_0: Operation not permitted
mel0423:rank4.orca_gtoint_mpi: Failed to modify UD QP to INIT on mlx5_0: Operation not permitted
mel0423:rank3.orca_gtoint_mpi: Failed to modify UD QP to INIT on mlx5_0: Operation not permitted
mel0423:rank0.orca_gtoint_mpi: Failed to modify UD QP to INIT on mlx5_0: Operation not permitted
mel0423:rank8.orca_gtoint_mpi: Failed to modify UD QP to INIT on mlx5_0: Operation not permitted
mel0423:rank6.orca_gtoint_mpi: Failed to modify UD QP to INIT on mlx5_0: Operation not permitted
mel0423:rank9.orca_gtoint_mpi: Failed to modify UD QP to INIT on mlx5_0: Operation not permitted
mel0423:rank5.orca_gtoint_mpi: Failed to modify UD QP to INIT on mlx5_0: Operation not permitted
mel0423:rank4.orca_gtoint_mpi: Failed to modify UD QP to INIT on mlx5_0: Operation not permitted
mel0423:rank7.orca_gtoint_mpi: Failed to modify UD QP to INIT on mlx5_0: Operation not permitted
mel0423:rank1.orca_gtoint_mpi: Failed to modify UD QP to INIT on mlx5_0: Operation not permitted
mel0423:rank3.orca_gtoint_mpi: Failed to modify UD QP to INIT on mlx5_0: Operation not permitted
mel0423:rank6.orca_gtoint_mpi: Failed to modify UD QP to INIT on mlx5_0: Operation not permitted
mel0423:rank2.orca_gtoint_mpi: Failed to modify UD QP to INIT on mlx5_0: Operation not permitted
mel0423:rank4.orca_gtoint_mpi: Failed to modify UD QP to INIT on mlx5_0: Operation not permitted
mel0423:rank7.orca_gtoint_mpi: Failed to modify UD QP to INIT on mlx5_0: Operation not permitted
mel0423:rank5.orca_gtoint_mpi: Failed to modify UD QP to INIT on mlx5_0: Operation not permitted
mel0423:rank3.orca_gtoint_mpi: Failed to modify UD QP to INIT on mlx5_0: Operation not permitted
mel0423:rank0.orca_gtoint_mpi: Failed to modify UD QP to INIT on mlx5_0: Operation not permitted
mel0423:rank9.orca_gtoint_mpi: Failed to modify UD QP to INIT on mlx5_0: Operation not permitted
mel0423:rank8.orca_gtoint_mpi: Failed to modify UD QP to INIT on mlx5_0: Operation not permitted
mel0423:rank1.orca_gtoint_mpi: Failed to modify UD QP to INIT on mlx5_0: Operation not permitted
mel0423:rank9.orca_gtoint_mpi: Failed to modify UD QP to INIT on mlx5_0: Operation not permitted
mel0423:rank2.orca_gtoint_mpi: Failed to modify UD QP to INIT on mlx5_0: Operation not permitted
mel0423:rank0.orca_gtoint_mpi: Failed to modify UD QP to INIT on mlx5_0: Operation not permitted
mel0423:rank8.orca_gtoint_mpi: Failed to modify UD QP to INIT on mlx5_0: Operation not permitted
mel0423:rank1.orca_gtoint_mpi: Failed to modify UD QP to INIT on mlx5_0: Operation not permitted
mel0423:rank2.orca_gtoint_mpi: Failed to modify UD QP to INIT on mlx5_0: Operation not permitted
mel0423:rank6.orca_gtoint_mpi: Failed to modify UD QP to INIT on mlx5_0: Operation not permitted
mel0423:rank2.orca_gtoint_mpi: Failed to modify UD QP to INIT on mlx5_0: Operation not permitted
mel0423:rank3.orca_gtoint_mpi: Failed to modify UD QP to INIT on mlx5_0: Operation not permitted
mel0423:rank7.orca_gtoint_mpi: Failed to modify UD QP to INIT on mlx5_0: Operation not permitted
mel0423:rank5.orca_gtoint_mpi: Failed to modify UD QP to INIT on mlx5_0: Operation not permitted
mel0423:rank4.orca_gtoint_mpi: Failed to modify UD QP to INIT on mlx5_0: Operation not permitted
mel0423:rank9.orca_gtoint_mpi: Failed to modify UD QP to INIT on mlx5_0: Operation not permitted
mel0423:rank8.orca_gtoint_mpi: Failed to modify UD QP to INIT on mlx5_0: Operation not permitted
mel0423:rank0.orca_gtoint_mpi: Failed to modify UD QP to INIT on mlx5_0: Operation not permitted
mel0423:rank1.orca_gtoint_mpi: Failed to modify UD QP to INIT on mlx5_0: Operation not permitted


           ************************************************************
           *        Program running with 10 parallel MPI-processes    *
           *              working on a common directory               *
           ************************************************************
------------------------------------------------------------------------------
                           ORCA GTO INTEGRAL CALCULATION
                           -- RI-GTO INTEGRALS CHOSEN --
------------------------------------------------------------------------------
------------------------------------------------------------------------------
                   ___                                                        
                  /   \      - P O W E R E D   B Y -                         
                 /     \                                                     
                 |  |  |   _    _      __       _____    __    __             
                 |  |  |  | |  | |    /  \     |  _  \  |  |  /  |          
                  \  \/   | |  | |   /    \    | | | |  |  | /  /          
                 / \  \   | |__| |  /  /\  \   | |_| |  |  |/  /          
                |  |  |   |  __  | /  /__\  \  |    /   |      \           
                |  |  |   | |  | | |   __   |  |    \   |  |\   \          
                \     /   | |  | | |  |  |  |  | |\  \  |  | \   \       
                 \___/    |_|  |_| |__|  |__|  |_| \__\ |__|  \__/        
                                                                              
                      - O R C A' S   B I G   F R I E N D -                    
                                      &                                       
                       - I N T E G R A L  F E E D E R -                       
                                                                              
 v1 FN, 2020, v2 2021                                                         
------------------------------------------------------------------------------


Reading SHARK input file rho.SHARKINP.tmp ... ok
----------------------
SHARK INTEGRAL PACKAGE
----------------------

Number of atoms                             ...      5
Number of basis functions                   ...    222
Number of shells                            ...     80
Maximum angular momentum                    ...      4
Integral batch strategy                     ... SHARK/LIBINT Hybrid
RI-J (if used) integral strategy            ... SPLIT-RIJ (Revised 2003 algorithm where possible)
Printlevel                                  ...      1
Contraction scheme used                     ... SEGMENTED contraction
Coulomb Range Separation                    ... NOT USED
Exchange Range Separation                   ... NOT USED
Finite Nucleus Model                        ... NOT USED
Auxiliary Coulomb fitting basis             ... AVAILABLE
   # of basis functions in Aux-J            ...   1411
   # of shells in Aux-J                     ...    329
   Maximum angular momentum in Aux-J        ...      6
Auxiliary J/K fitting basis                 ... AVAILABLE
   # of basis functions in Aux-JK           ...   1411
   # of shells in Aux-JK                    ...    329
   Maximum angular momentum in Aux-JK       ...      6
Auxiliary Correlation fitting basis         ... AVAILABLE
   # of basis functions in Aux-C            ...   1411
   # of shells in Aux-C                     ...    329
   Maximum angular momentum in Aux-C        ...      6
Auxiliary 'external' fitting basis          ... NOT available
Integral threshold                          ...     1.000000e-12
Primitive cut-off                           ...     1.000000e-14
Primitive pair pre-selection threshold      ...     1.000000e-14

Calculating pre-screening integrals         ... done (  0.1 sec) Dimension = 80
Organizing shell pair data                  ... done (  0.0 sec)
Shell pair information
Total number of shell pairs                 ...      3240
Shell pairs after pre-screening             ...      2629
Total number of primitive shell pairs       ...      9074
Primitive shell pairs kept                  ...      5779
          la=0 lb=0:    504 shell pairs
          la=1 lb=0:    658 shell pairs
          la=1 lb=1:    213 shell pairs
          la=2 lb=0:    432 shell pairs
          la=2 lb=1:    268 shell pairs
          la=2 lb=2:     95 shell pairs
          la=3 lb=0:    178 shell pairs
          la=3 lb=1:    118 shell pairs
          la=3 lb=2:     76 shell pairs
          la=3 lb=3:     21 shell pairs
          la=4 lb=0:     28 shell pairs
          la=4 lb=1:     19 shell pairs
          la=4 lb=2:     12 shell pairs
          la=4 lb=3:      6 shell pairs
          la=4 lb=4:      1 shell pairs

Calculating one electron integrals          ... done (  0.0 sec)
Calculating RI/J V-Matrix + Cholesky decomp.... done (  0.2 sec)
Calculating RI/JK V-Matrix + Cholesky decomp... done (  0.1 sec)
Calculating RI/C V-Matrix + Cholesky decomp.... done (  0.1 sec)
Calculating Nuclear repulsion               ... done (  0.0 sec) ENN=    316.476908847068 Eh

SHARK setup successfully completed in   0.7 seconds

Maximum memory used throughout the entire GTOINT-calculation: 36.8 MB


           ************************************************************
           *        Program running with 10 parallel MPI-processes    *
           *              working on a common directory               *
           ************************************************************
------------------------------------------------------------------------------
                          ORCA RELATIVISTIC HAMILTONIAN
------------------------------------------------------------------------------

Relativistic Method            ... DKH
Order of DKH treatment         ...   2
Treatment of potential         ... V(e,N)
Eps parameter for DKH          ...   0.00000000010000
Nucleus model                  ... Point Nucleus
Speed of light used            ... 137.03598950000000


            ************************************************
            *        DOUGLAS-KROLL-HESS HAMILTONIAN        *
            *   Programmed by FN according to literature   *
            *        procedures. Special thanks to         *
            *       B.A. Hess, M. Reiher and A. Wolf       *
            *     University Erlangen-Nuernberg/Bonn       *
            ************************************************

Uncontracting the basis (first version)        ... done
Number of contracted basis functions           ...  222
Number of uncontracted basis functions         ...  329
Initializing the DKH file                      ... done
Calculating the relativistic integrals         ... done
Storing DKH matrices                           ... done
Code used for DKH trafo                        ... ORCA
Computing the DKH transformation               ... done
Storing the transformation variables           ... done
Transforming V and pVp to p**2 space           ... done
First transformation of V and pVp              ... done
Second transformation of Veff                  ... done
Adding kinetic energy                          ... done
Back transformation of Veff to r-space         ... done
Recovering DKH matrices                        ... done
Recontracting the H-matrix (first version)     ... done
Computing the DKH correction to the H-matrix   ... done
Reading the original H-matrix                  ... done
Adding DKH correction to the H-matrix          ... done
Storing the new modified H-matrix              ... done

Maximum memory used throughout the entire REL-calculation: 69.3 MB
mel0423:rank6.orca_scf_mpi: Failed to modify UD QP to INIT on mlx5_0: Operation not permitted
mel0423:rank4.orca_scf_mpi: Failed to modify UD QP to INIT on mlx5_0: Operation not permitted
mel0423:rank7.orca_scf_mpi: Failed to modify UD QP to INIT on mlx5_0: Operation not permitted
mel0423:rank6.orca_scf_mpi: Failed to modify UD QP to INIT on mlx5_0: Operation not permitted
mel0423:rank6.orca_scf_mpi: Failed to modify UD QP to INIT on mlx5_0: Operation not permitted
mel0423:rank4.orca_scf_mpi: Failed to modify UD QP to INIT on mlx5_0: Operation not permitted
mel0423:rank7.orca_scf_mpi: Failed to modify UD QP to INIT on mlx5_0: Operation not permitted
mel0423:rank4.orca_scf_mpi: Failed to modify UD QP to INIT on mlx5_0: Operation not permitted
mel0423:rank7.orca_scf_mpi: Failed to modify UD QP to INIT on mlx5_0: Operation not permitted
mel0423:rank9.orca_scf_mpi: Failed to modify UD QP to INIT on mlx5_0: Operation not permitted
mel0423:rank3.orca_scf_mpi: Failed to modify UD QP to INIT on mlx5_0: Operation not permitted
mel0423:rank2.orca_scf_mpi: Failed to modify UD QP to INIT on mlx5_0: Operation not permitted
mel0423:rank5.orca_scf_mpi: Failed to modify UD QP to INIT on mlx5_0: Operation not permitted
mel0423:rank8.orca_scf_mpi: Failed to modify UD QP to INIT on mlx5_0: Operation not permitted
mel0423:rank1.orca_scf_mpi: Failed to modify UD QP to INIT on mlx5_0: Operation not permitted
mel0423:rank9.orca_scf_mpi: Failed to modify UD QP to INIT on mlx5_0: Operation not permitted
mel0423:rank2.orca_scf_mpi: Failed to modify UD QP to INIT on mlx5_0: Operation not permitted
mel0423:rank5.orca_scf_mpi: Failed to modify UD QP to INIT on mlx5_0: Operation not permitted
mel0423:rank0.orca_scf_mpi: Failed to modify UD QP to INIT on mlx5_0: Operation not permitted
mel0423:rank3.orca_scf_mpi: Failed to modify UD QP to INIT on mlx5_0: Operation not permitted
mel0423:rank5.orca_scf_mpi: Failed to modify UD QP to INIT on mlx5_0: Operation not permitted
mel0423:rank9.orca_scf_mpi: Failed to modify UD QP to INIT on mlx5_0: Operation not permitted
mel0423:rank2.orca_scf_mpi: Failed to modify UD QP to INIT on mlx5_0: Operation not permitted
mel0423:rank1.orca_scf_mpi: Failed to modify UD QP to INIT on mlx5_0: Operation not permitted
mel0423:rank3.orca_scf_mpi: Failed to modify UD QP to INIT on mlx5_0: Operation not permitted
mel0423:rank8.orca_scf_mpi: Failed to modify UD QP to INIT on mlx5_0: Operation not permitted
mel0423:rank6.orca_scf_mpi: Failed to modify UD QP to INIT on mlx5_0: Operation not permitted
mel0423:rank4.orca_scf_mpi: Failed to modify UD QP to INIT on mlx5_0: Operation not permitted
mel0423:rank1.orca_scf_mpi: Failed to modify UD QP to INIT on mlx5_0: Operation not permitted
mel0423:rank0.orca_scf_mpi: Failed to modify UD QP to INIT on mlx5_0: Operation not permitted
mel0423:rank8.orca_scf_mpi: Failed to modify UD QP to INIT on mlx5_0: Operation not permitted
mel0423:rank7.orca_scf_mpi: Failed to modify UD QP to INIT on mlx5_0: Operation not permitted
mel0423:rank0.orca_scf_mpi: Failed to modify UD QP to INIT on mlx5_0: Operation not permitted
mel0423:rank5.orca_scf_mpi: Failed to modify UD QP to INIT on mlx5_0: Operation not permitted
mel0423:rank3.orca_scf_mpi: Failed to modify UD QP to INIT on mlx5_0: Operation not permitted
mel0423:rank9.orca_scf_mpi: Failed to modify UD QP to INIT on mlx5_0: Operation not permitted
mel0423:rank2.orca_scf_mpi: Failed to modify UD QP to INIT on mlx5_0: Operation not permitted
mel0423:rank1.orca_scf_mpi: Failed to modify UD QP to INIT on mlx5_0: Operation not permitted
mel0423:rank8.orca_scf_mpi: Failed to modify UD QP to INIT on mlx5_0: Operation not permitted
mel0423:rank0.orca_scf_mpi: Failed to modify UD QP to INIT on mlx5_0: Operation not permitted


           ************************************************************
           *        Program running with 10 parallel MPI-processes    *
           *              working on a common directory               *
           ************************************************************
-------------------------------------------------------------------------------
                                 ORCA SCF
-------------------------------------------------------------------------------

------------
SCF SETTINGS
------------
Hamiltonian:
 Ab initio Hamiltonian  Method          .... Hartree-Fock(GTOs)
 RI-approximation to the Coulomb term is turned on
   Number of AuxJ basis functions       .... 1411
   RIJ-COSX (HFX calculated with COS-X)).... on

Relativistic Settings:
 Scalar relativistic method             .... Douglas-Kroll-Hess
 Order of DKH procedure    Order        ....    2
 Mode of DKH-treatment                  .... V=V(e,N)
 Speed of light used       Velit        ....       137.035989
 Cutoff-constant           Eps          ....            1e-10 


General Settings:
 Integral files         IntName         .... rho
 Hartree-Fock type      HFTyp           .... CASSCF
 Total Charge           Charge          ....    0
 Multiplicity           Mult            ....    4
 Number of Electrons    NEL             ....   69
 Basis Dimension        Dim             ....  222
 Nuclear Repulsion      ENuc            ....    316.4769088471 Eh


Diagonalization of the overlap matrix:
Smallest eigenvalue                        ... 9.884e-05
Time for diagonalization                   ...    0.010 sec
Threshold for overlap eigenvalues          ... 1.000e-08
Number of eigenvalues below threshold      ... 0
Time for construction of square roots      ...    0.007 sec
Total time needed                          ...    0.019 sec

---------------------
INITIAL GUESS: MOREAD
---------------------
Guess MOs are being read from file: orb.gbw
Input Geometry matches current geometry (good)
Input basis set matches current basis set (good)
MOs were renormalized
Gram-Schmidt orthogonalization of all MOs with pivot on actives
-----------------
ORBITAL ROTATIONS
-----------------
  Rotation  34(0)   25(0) cos(t)= 0.000000  sin(t)= 1.000000
  Orbital Energies were swapped
                      ------------------
                      INITIAL GUESS DONE (   0.1 sec)
                      ------------------
--------------------
COSX GRID GENERATION
--------------------

GRIDX 1
-------
General Integration Accuracy     IntAcc      ... 3.816
Radial Grid Type                 RadialGrid  ... OptM3 with GC (2021)
Angular Grid (max. ang.)         AngularGrid ... 1 (Lebedev-50)
Angular grid pruning method      GridPruning ... 4 (adaptive)
Weight generation scheme         WeightScheme... Becke
Basis function cutoff            BFCut       ... 1.0000e-12
Integration weight cutoff        WCut        ... 1.0000e-14
Angular grids for H and He will be reduced by one unit
Partially contracted basis set               ... on
Rotationally invariant grid construction     ... off

Total number of grid points                  ...     4420
Total number of batches                      ...       72
Average number of points per batch           ...       61
Average number of grid points per atom       ...      884

GRIDX 2
-------
General Integration Accuracy     IntAcc      ... 4.020
Radial Grid Type                 RadialGrid  ... OptM3 with GC (2021)
Angular Grid (max. ang.)         AngularGrid ... 2 (Lebedev-110)
Angular grid pruning method      GridPruning ... 4 (adaptive)
Weight generation scheme         WeightScheme... Becke
Basis function cutoff            BFCut       ... 1.0000e-12
Integration weight cutoff        WCut        ... 1.0000e-14
Angular grids for H and He will be reduced by one unit
Partially contracted basis set               ... on
Rotationally invariant grid construction     ... off

Total number of grid points                  ...    10332
Total number of batches                      ...      164
Average number of points per batch           ...       63
Average number of grid points per atom       ...     2066

GRIDX 3
-------
General Integration Accuracy     IntAcc      ... 4.338
Radial Grid Type                 RadialGrid  ... OptM3 with GC (2021)
Angular Grid (max. ang.)         AngularGrid ... 3 (Lebedev-194)
Angular grid pruning method      GridPruning ... 4 (adaptive)
Weight generation scheme         WeightScheme... Becke
Basis function cutoff            BFCut       ... 1.0000e-12
Integration weight cutoff        WCut        ... 1.0000e-14
Angular grids for H and He will be reduced by one unit
Partially contracted basis set               ... on
Rotationally invariant grid construction     ... off

Total number of grid points                  ...    24406
Total number of batches                      ...      383
Average number of points per batch           ...       63
Average number of grid points per atom       ...     4881

Time for X-Grid setup             =    0.206 sec



 ... the calculation is a CASSCF calculation -I'm leaving here GOOD LUCK!!!

mel0423:rank5.orca_casscf_mpi: Failed to modify UD QP to INIT on mlx5_0: Operation not permitted
mel0423:rank4.orca_casscf_mpi: Failed to modify UD QP to INIT on mlx5_0: Operation not permitted
mel0423:rank7.orca_casscf_mpi: Failed to modify UD QP to INIT on mlx5_0: Operation not permitted
mel0423:rank6.orca_casscf_mpi: Failed to modify UD QP to INIT on mlx5_0: Operation not permitted
mel0423:rank2.orca_casscf_mpi: Failed to modify UD QP to INIT on mlx5_0: Operation not permitted
mel0423:rank3.orca_casscf_mpi: Failed to modify UD QP to INIT on mlx5_0: Operation not permitted
mel0423:rank5.orca_casscf_mpi: Failed to modify UD QP to INIT on mlx5_0: Operation not permitted
mel0423:rank4.orca_casscf_mpi: Failed to modify UD QP to INIT on mlx5_0: Operation not permitted
mel0423:rank9.orca_casscf_mpi: Failed to modify UD QP to INIT on mlx5_0: Operation not permitted
mel0423:rank1.orca_casscf_mpi: Failed to modify UD QP to INIT on mlx5_0: Operation not permitted
mel0423:rank7.orca_casscf_mpi: Failed to modify UD QP to INIT on mlx5_0: Operation not permitted
mel0423:rank5.orca_casscf_mpi: Failed to modify UD QP to INIT on mlx5_0: Operation not permitted
mel0423:rank4.orca_casscf_mpi: Failed to modify UD QP to INIT on mlx5_0: Operation not permitted
mel0423:rank6.orca_casscf_mpi: Failed to modify UD QP to INIT on mlx5_0: Operation not permitted
mel0423:rank8.orca_casscf_mpi: Failed to modify UD QP to INIT on mlx5_0: Operation not permitted
mel0423:rank0.orca_casscf_mpi: Failed to modify UD QP to INIT on mlx5_0: Operation not permitted
mel0423:rank7.orca_casscf_mpi: Failed to modify UD QP to INIT on mlx5_0: Operation not permitted
mel0423:rank2.orca_casscf_mpi: Failed to modify UD QP to INIT on mlx5_0: Operation not permitted
mel0423:rank9.orca_casscf_mpi: Failed to modify UD QP to INIT on mlx5_0: Operation not permitted
mel0423:rank3.orca_casscf_mpi: Failed to modify UD QP to INIT on mlx5_0: Operation not permitted
mel0423:rank6.orca_casscf_mpi: Failed to modify UD QP to INIT on mlx5_0: Operation not permitted
mel0423:rank1.orca_casscf_mpi: Failed to modify UD QP to INIT on mlx5_0: Operation not permitted
mel0423:rank3.orca_casscf_mpi: Failed to modify UD QP to INIT on mlx5_0: Operation not permitted
mel0423:rank2.orca_casscf_mpi: Failed to modify UD QP to INIT on mlx5_0: Operation not permitted
mel0423:rank9.orca_casscf_mpi: Failed to modify UD QP to INIT on mlx5_0: Operation not permitted
mel0423:rank8.orca_casscf_mpi: Failed to modify UD QP to INIT on mlx5_0: Operation not permitted
mel0423:rank1.orca_casscf_mpi: Failed to modify UD QP to INIT on mlx5_0: Operation not permitted
mel0423:rank0.orca_casscf_mpi: Failed to modify UD QP to INIT on mlx5_0: Operation not permitted
mel0423:rank8.orca_casscf_mpi: Failed to modify UD QP to INIT on mlx5_0: Operation not permitted
mel0423:rank0.orca_casscf_mpi: Failed to modify UD QP to INIT on mlx5_0: Operation not permitted
mel0423:rank4.orca_casscf_mpi: Failed to modify UD QP to INIT on mlx5_0: Operation not permitted
mel0423:rank5.orca_casscf_mpi: Failed to modify UD QP to INIT on mlx5_0: Operation not permitted
mel0423:rank6.orca_casscf_mpi: Failed to modify UD QP to INIT on mlx5_0: Operation not permitted
mel0423:rank7.orca_casscf_mpi: Failed to modify UD QP to INIT on mlx5_0: Operation not permitted
mel0423:rank3.orca_casscf_mpi: Failed to modify UD QP to INIT on mlx5_0: Operation not permitted
mel0423:rank2.orca_casscf_mpi: Failed to modify UD QP to INIT on mlx5_0: Operation not permitted
mel0423:rank9.orca_casscf_mpi: Failed to modify UD QP to INIT on mlx5_0: Operation not permitted
mel0423:rank1.orca_casscf_mpi: Failed to modify UD QP to INIT on mlx5_0: Operation not permitted
mel0423:rank0.orca_casscf_mpi: Failed to modify UD QP to INIT on mlx5_0: Operation not permitted
mel0423:rank8.orca_casscf_mpi: Failed to modify UD QP to INIT on mlx5_0: Operation not permitted


           ************************************************************
           *        Program running with 10 parallel MPI-processes    *
           *              working on a common directory               *
           ************************************************************
-------------------------------------------------------------------------------
                              ORCA-CASSCF
-------------------------------------------------------------------------------

Setting up the integral package       ... done
Setting up the integral package (RI)  ... done
Building the CAS space                ... done (10 configurations for Mult=4)
Building the CAS space                ... done (30 configurations for Mult=2)

SYSTEM-SPECIFIC SETTINGS:
Number of active electrons          ...    7
Number of active orbitals           ...    5
Total number of electrons           ...   69
Total number of orbitals            ...  222
Total number aux. functions         ... 1411

Determined orbital ranges:
   Internal       0 -   30 (  31 orbitals)
   Active        31 -   35 (   5 orbitals)
   External      36 -  221 ( 186 orbitals)
Number of rotation parameters      ...   6851

CI-STEP:
CI strategy                         ... General CI
Number of multiplicity blocks       ...    2
BLOCK  1 WEIGHT=   0.5000
  Multiplicity                      ...    4
  #(Configurations)                 ...   10
  #(CSFs)                           ...   10
  #(Roots)                          ...   10
    ROOT=0 WEIGHT=    0.050000
    ROOT=1 WEIGHT=    0.050000
    ROOT=2 WEIGHT=    0.050000
    ROOT=3 WEIGHT=    0.050000
    ROOT=4 WEIGHT=    0.050000
    ROOT=5 WEIGHT=    0.050000
    ROOT=6 WEIGHT=    0.050000
    ROOT=7 WEIGHT=    0.050000
    ROOT=8 WEIGHT=    0.050000
    ROOT=9 WEIGHT=    0.050000

BLOCK  2 WEIGHT=   0.5000
  Multiplicity                      ...    2
  #(Configurations)                 ...   30
  #(CSFs)                           ...   40
  #(Roots)                          ...   40
    ROOT=0 WEIGHT=    0.012500
    ROOT=1 WEIGHT=    0.012500
    ROOT=2 WEIGHT=    0.012500
    ROOT=3 WEIGHT=    0.012500
    ROOT=4 WEIGHT=    0.012500
    ROOT=5 WEIGHT=    0.012500
    ROOT=6 WEIGHT=    0.012500
    ROOT=7 WEIGHT=    0.012500
    ROOT=8 WEIGHT=    0.012500
    ROOT=9 WEIGHT=    0.012500
    ROOT=10 WEIGHT=    0.012500
    ROOT=11 WEIGHT=    0.012500
    ROOT=12 WEIGHT=    0.012500
    ROOT=13 WEIGHT=    0.012500
    ROOT=14 WEIGHT=    0.012500
    ROOT=15 WEIGHT=    0.012500
    ROOT=16 WEIGHT=    0.012500
    ROOT=17 WEIGHT=    0.012500
    ROOT=18 WEIGHT=    0.012500
    ROOT=19 WEIGHT=    0.012500
    ROOT=20 WEIGHT=    0.012500
    ROOT=21 WEIGHT=    0.012500
    ROOT=22 WEIGHT=    0.012500
    ROOT=23 WEIGHT=    0.012500
    ROOT=24 WEIGHT=    0.012500
    ROOT=25 WEIGHT=    0.012500
    ROOT=26 WEIGHT=    0.012500
    ROOT=27 WEIGHT=    0.012500
    ROOT=28 WEIGHT=    0.012500
    ROOT=29 WEIGHT=    0.012500
    ROOT=30 WEIGHT=    0.012500
    ROOT=31 WEIGHT=    0.012500
    ROOT=32 WEIGHT=    0.012500
    ROOT=33 WEIGHT=    0.012500
    ROOT=34 WEIGHT=    0.012500
    ROOT=35 WEIGHT=    0.012500
    ROOT=36 WEIGHT=    0.012500
    ROOT=37 WEIGHT=    0.012500
    ROOT=38 WEIGHT=    0.012500
    ROOT=39 WEIGHT=    0.012500

  PrintLevel                        ...    1
  N(GuessMat)                       ...       512
  MaxDim(CI)                        ...        10
  MaxIter(CI)                       ...        64
  Energy Tolerance CI               ...  1.00e-09
  Residual Tolerance CI             ...  1.00e-09
  Shift(CI)                         ...  1.00e-04

INTEGRAL-TRANSFORMATION-STEP:
  Algorithm                         ... RI-MO

ORBITAL-IMPROVEMENT-STEP:
  Algorithm                         ... SuperCI
  Default Parametrization           ... CAYLEY
  Act-Act rotations                 ... depends on algorithm used
  FreezeIE                          ... 95.00% of ||g||
  Until reaching FreezeIE rotations with active orbitals are damped. 

  Approx. Fock at                   ... 0.000000e+00 density convergence
  Level shift                       ... energy gap dependent. Minimum=1.000
  Switch step at gradient           ...  3.00e-02 
  Switch step at iteration          ...        50   
  Switch step to                    ... DIIS    

SCF-SETTINGS:
  Incremental                       ... off
  RIJCOSX approximation             ... on
  UseFinalGrid                      ... on
  RI-JK approximation               ... off
  AO integral handling              ... DIRECT
  Integral Neglect Thresh           ...  1.00e-12
  Primitive cutoff TCut             ...  1.00e-14
  Energy convergence tolerance      ...  1.00e-08
  Orbital gradient convergence      ...  1.00e-05
  Max. number of iterations         ...       100  


PROPERTIES-SETTINGS:
  Spin orbit coupling               ... true
  GTensor                           ... true

FINAL ORBITALS:
  Active   Orbitals                 ... d-orbitals 
  Internal Orbitals                 ... canonical 
  External Orbitals                 ... canonical 

------------------
CAS-SCF ITERATIONS
------------------


MACRO-ITERATION   1: 
   --- Canonicalize Internal Space
   --- Canonicalize External Space
   --- Inactive Energy E0 = -2127.91736101 Eh
CI-ITERATION   0: 
 -2150.559413448   0.000000000000 (    0.00)
 -2150.558003480   0.000000000000
 -2150.548043288   0.000000000000
 -2150.541969378   0.000000000000
 -2150.540839747   0.000000000000
 -2150.528429408   0.000000000000
 -2150.522789534   0.000000000000
 -2150.488273639   0.000000000000
 -2150.453018578   0.000000000000
 -2150.445660994   0.000000000000
   CI-PROBLEM SOLVED
   DENSITIES MADE
CI-ITERATION   0: 
 -2150.504065456   0.000000000000 (    0.01)
 -2150.499990037   0.000000000000
 -2150.490728949   0.000000000000
 -2150.489897394   0.000000000000
 -2150.481476661   0.000000000000
 -2150.480304759   0.000000000000
 -2150.475342584   0.000000000000
 -2150.472511206   0.000000000000
 -2150.471897682   0.000000000000
 -2150.471331770   0.000000000000
 -2150.457622639   0.000000000000
 -2150.455912893   0.000000000000
 -2150.453838275   0.000000000000
 -2150.453132573   0.000000000000
 -2150.447515658   0.000000000000
 -2150.447157601   0.000000000000
 -2150.444294473   0.000000000000
 -2150.439774846   0.000000000000
 -2150.438731078   0.000000000000
 -2150.436635796   0.000000000000
 -2150.433954600   0.000000000000
 -2150.433507675   0.000000000000
 -2150.432078251   0.000000000000
 -2150.430982822   0.000000000000
 -2150.428350642   0.000000000000
 -2150.420508139   0.000000000000
 -2150.406942915   0.000000000000
 -2150.406890687   0.000000000000
 -2150.380250562   0.000000000000
 -2150.371134133   0.000000000000
 -2150.364647078   0.000000000000
 -2150.364346903   0.000000000000
 -2150.363281026   0.000000000000
 -2150.354639101   0.000000000000
 -2150.354536452   0.000000000000
 -2150.296440485   0.000000000000
 -2150.274543489   0.000000000000
 -2150.273900416   0.000000000000
 -2150.237364031   0.000000000000
 -2150.231634202   0.000000000000
   CI-PROBLEM SOLVED
   DENSITIES MADE

                 <<<<<<<<<<<<<<<<<<INITIAL CI STATE CHECK>>>>>>>>>>>>>>>>>>

BLOCK  1 MULT= 4 NROOTS=10 
ROOT   0:  E=   -2150.5594134480 Eh
      0.74916 [     4]: 12121
      0.19619 [     1]: 11212
      0.04189 [     6]: 21112
      0.00853 [     9]: 22111
      0.00423 [     0]: 11122
ROOT   1:  E=   -2150.5580034804 Eh  0.038 eV    309.5 cm**-1
      0.47460 [     0]: 11122
      0.41426 [     5]: 12211
      0.10538 [     9]: 22111
      0.00296 [     4]: 12121
ROOT   2:  E=   -2150.5480432880 Eh  0.309 eV   2495.5 cm**-1
      0.53609 [     3]: 12112
      0.36221 [     2]: 11221
      0.10041 [     7]: 21121
ROOT   3:  E=   -2150.5419693785 Eh  0.475 eV   3828.5 cm**-1
      0.44383 [     0]: 11122
      0.38380 [     5]: 12211
      0.10395 [     6]: 21112
      0.03724 [     9]: 22111
      0.03086 [     1]: 11212
ROOT   4:  E=   -2150.5408397469 Eh  0.505 eV   4076.5 cm**-1
      0.46767 [     1]: 11212
      0.21178 [     6]: 21112
      0.18009 [     4]: 12121
      0.10825 [     9]: 22111
      0.03193 [     5]: 12211
ROOT   5:  E=   -2150.5284294083 Eh  0.843 eV   6800.2 cm**-1
      0.79365 [     7]: 21121
      0.20620 [     2]: 11221
ROOT   6:  E=   -2150.5227895335 Eh  0.997 eV   8038.0 cm**-1
      0.99834 [     8]: 21211
ROOT   7:  E=   -2150.4882736393 Eh  1.936 eV  15613.4 cm**-1
      0.46221 [     3]: 12112
      0.43150 [     2]: 11221
      0.10592 [     7]: 21121
ROOT   8:  E=   -2150.4530185776 Eh  2.895 eV  23351.0 cm**-1
      0.71897 [     9]: 22111
      0.12555 [     5]: 12211
      0.07730 [     1]: 11212
      0.06383 [     4]: 12121
      0.01002 [     6]: 21112
      0.00433 [     0]: 11122
ROOT   9:  E=   -2150.4456609935 Eh  3.095 eV  24965.8 cm**-1
      0.63189 [     6]: 21112
      0.22565 [     1]: 11212
      0.07272 [     0]: 11122
      0.04445 [     5]: 12211
      0.02164 [     9]: 22111
      0.00365 [     4]: 12121

BLOCK  2 MULT= 2 NROOTS=40 
ROOT   0:  E=   -2150.5040654562 Eh
      0.74458 [     1]: 02122
      0.18976 [     8]: 12022
      0.01562 [    25]: 22102
      0.01550 [    21]: 21211
      0.01411 [    27]: 22120
      0.00706 [    14]: 20122
      0.00392 [    11]: 12202
      0.00328 [     7]: 11221
      0.00318 [     4]: 10222
ROOT   1:  E=   -2150.4999900371 Eh  0.111 eV    894.5 cm**-1
      0.54063 [     2]: 02212
      0.40105 [     9]: 12112
      0.01827 [    19]: 21121
      0.01520 [    29]: 22210
      0.00918 [    15]: 20212
      0.00542 [    23]: 22012
      0.00463 [     7]: 11221
ROOT   2:  E=   -2150.4907289490 Eh  0.363 eV   2927.0 cm**-1
      0.37137 [     3]: 02221
      0.21839 [    10]: 12121
      0.18677 [    12]: 12211
      0.09811 [     5]: 11122
      0.04532 [    26]: 22111
      0.02495 [    28]: 22201
      0.02412 [     0]: 01222
      0.01068 [    17]: 21022
      0.00942 [    24]: 22021
      0.00606 [     6]: 11212
      0.00304 [    18]: 21112
ROOT   3:  E=   -2150.4898973943 Eh  0.386 eV   3109.5 cm**-1
      0.44303 [    10]: 12121
      0.22444 [     5]: 11122
      0.14992 [     0]: 01222
      0.05329 [    24]: 22021
      0.02973 [    12]: 12211
      0.02568 [     3]: 02221
      0.02543 [     6]: 11212
      0.02305 [    20]: 21202
      0.00986 [    26]: 22111
      0.00704 [    17]: 21022
      0.00618 [    18]: 21112
ROOT   4:  E=   -2150.4814766613 Eh  0.615 eV   4957.7 cm**-1
      0.36167 [    12]: 12211
      0.29265 [     5]: 11122
      0.12508 [    17]: 21022
      0.09422 [     0]: 01222
      0.07180 [    26]: 22111
      0.01857 [    18]: 21112
      0.01259 [    28]: 22201
      0.01068 [     3]: 02221
      0.00837 [    24]: 22021
      0.00314 [     6]: 11212
ROOT   5:  E=   -2150.4803047586 Eh  0.647 eV   5214.9 cm**-1
      0.44946 [     6]: 11212
      0.17102 [    10]: 12121
      0.13336 [    18]: 21112
      0.09705 [     5]: 11122
      0.05951 [     0]: 01222
      0.03569 [    24]: 22021
      0.02625 [     3]: 02221
      0.01399 [    26]: 22111
      0.00676 [    12]: 12211
      0.00655 [    17]: 21022
ROOT   6:  E=   -2150.4753425836 Eh  0.782 eV   6303.9 cm**-1
      0.32265 [    13]: 12220
      0.16434 [     8]: 12022
      0.10165 [    29]: 22210
      0.09908 [    19]: 21121
      0.07292 [    11]: 12202
      0.05518 [     4]: 10222
      0.04238 [     1]: 02122
      0.03552 [    27]: 22120
      0.03224 [    14]: 20122
      0.02864 [    15]: 20212
      0.01919 [     7]: 11221
      0.01689 [    25]: 22102
      0.00868 [    21]: 21211
ROOT   7:  E=   -2150.4725112057 Eh  0.859 eV   6925.4 cm**-1
      0.37907 [    10]: 12121
      0.16813 [     6]: 11212
      0.10801 [     3]: 02221
      0.08092 [     0]: 01222
      0.06171 [    24]: 22021
      0.05567 [    18]: 21112
      0.03797 [     5]: 11122
      0.03614 [    26]: 22111
      0.03346 [    22]: 21220
      0.02032 [    17]: 21022
      0.01730 [    12]: 12211
ROOT   8:  E=   -2150.4718976821 Eh  0.875 eV   7060.0 cm**-1
      0.64608 [     7]: 11221
      0.17455 [    19]: 21121
      0.07505 [     9]: 12112
      0.03868 [    23]: 22012
      0.03644 [     2]: 02212
      0.01107 [    27]: 22120
      0.00999 [    21]: 21211
      0.00335 [    13]: 12220
      0.00304 [    14]: 20122
ROOT   9:  E=   -2150.4713317701 Eh  0.891 eV   7184.2 cm**-1
      0.35688 [    12]: 12211
      0.35001 [     5]: 11122
      0.09439 [     3]: 02221
      0.06471 [    26]: 22111
      0.04365 [    18]: 21112
      0.03659 [    10]: 12121
      0.02168 [    17]: 21022
      0.01951 [    16]: 20221
      0.00701 [     0]: 01222
ROOT  10:  E=   -2150.4576226393 Eh  1.264 eV  10193.0 cm**-1
      0.33530 [     7]: 11221
      0.22847 [    27]: 22120
      0.13302 [     9]: 12112
      0.10607 [    13]: 12220
      0.07395 [    21]: 21211
      0.07230 [    19]: 21121
      0.01442 [    11]: 12202
      0.01307 [     8]: 12022
      0.00711 [     4]: 10222
      0.00523 [    23]: 22012
      0.00358 [     2]: 02212
      0.00266 [    25]: 22102
ROOT  11:  E=   -2150.4559128931 Eh  1.310 eV  10568.3 cm**-1
      0.26619 [    19]: 21121
      0.15950 [    29]: 22210
      0.14418 [    11]: 12202
      0.12648 [     8]: 12022
      0.08678 [     7]: 11221
      0.04612 [     4]: 10222
      0.04276 [     9]: 12112
      0.03962 [    25]: 22102
      0.03265 [     1]: 02122
      0.02150 [    15]: 20212
      0.01414 [    13]: 12220
      0.01385 [    14]: 20122
      0.00264 [     2]: 02212
ROOT  12:  E=   -2150.4538382753 Eh  1.367 eV  11023.6 cm**-1
      0.22425 [     7]: 11221
      0.17438 [     9]: 12112
      0.12159 [    21]: 21211
      0.11407 [     4]: 10222
      0.10852 [    19]: 21121
      0.06343 [     8]: 12022
      0.04974 [    14]: 20122
      0.03401 [     2]: 02212
      0.03057 [    13]: 12220
      0.02574 [    15]: 20212
      0.01649 [    25]: 22102
      0.01088 [    29]: 22210
      0.00920 [    11]: 12202
      0.00895 [     1]: 02122
      0.00784 [    23]: 22012
ROOT  13:  E=   -2150.4531325728 Eh  1.386 eV  11178.5 cm**-1
      0.22220 [    14]: 20122
      0.18267 [     4]: 10222
      0.15603 [    13]: 12220
      0.09058 [    15]: 20212
      0.08261 [     9]: 12112
      0.05352 [    27]: 22120
      0.05168 [     8]: 12022
      0.03752 [    23]: 22012
      0.03006 [    21]: 21211
      0.02634 [    19]: 21121
      0.02312 [    29]: 22210
      0.02242 [     7]: 11221
      0.01799 [     1]: 02122
ROOT  14:  E=   -2150.4475156580 Eh  1.539 eV  12411.2 cm**-1
      0.34207 [    22]: 21220
      0.17637 [    10]: 12121
      0.14378 [    26]: 22111
      0.07799 [     5]: 11122
      0.06102 [     6]: 11212
      0.05772 [    18]: 21112
      0.04313 [    12]: 12211
      0.02961 [     3]: 02221
      0.02671 [    20]: 21202
      0.02601 [    17]: 21022
      0.01096 [    28]: 22201
      0.00253 [     0]: 01222
ROOT  15:  E=   -2150.4471576008 Eh  1.549 eV  12489.8 cm**-1
      0.28807 [    12]: 12211
      0.21896 [     5]: 11122
      0.11601 [    22]: 21220
      0.08277 [    24]: 22021
      0.05494 [    17]: 21022
      0.05311 [     6]: 11212
      0.05053 [     0]: 01222
      0.04402 [    10]: 12121
      0.03012 [    18]: 21112
      0.02301 [    20]: 21202
      0.01660 [    16]: 20221
      0.01038 [    26]: 22111
      0.00883 [    28]: 22201
      0.00267 [     3]: 02221
ROOT  16:  E=   -2150.4442944730 Eh  1.626 eV  13118.2 cm**-1
      0.34436 [     6]: 11212
      0.32213 [    22]: 21220
      0.11663 [    18]: 21112
      0.05105 [    10]: 12121
      0.05087 [     5]: 11122
      0.04389 [    17]: 21022
      0.04283 [    26]: 22111
      0.01216 [    12]: 12211
      0.00956 [     3]: 02221
      0.00288 [     0]: 01222
ROOT  17:  E=   -2150.4397748455 Eh  1.749 eV  14110.2 cm**-1
      0.59862 [    19]: 21121
      0.15701 [     7]: 11221
      0.08930 [    29]: 22210
      0.05376 [     8]: 12022
      0.03733 [     2]: 02212
      0.02730 [    11]: 12202
      0.01352 [     1]: 02122
      0.00692 [    25]: 22102
      0.00663 [    23]: 22012
      0.00652 [     9]: 12112
ROOT  18:  E=   -2150.4387310783 Eh  1.778 eV  14339.2 cm**-1
      0.57330 [    16]: 20221
      0.11782 [    28]: 22201
      0.08343 [     5]: 11122
      0.07172 [    10]: 12121
      0.06421 [    24]: 22021
      0.04558 [    12]: 12211
      0.02084 [    18]: 21112
      0.01109 [     6]: 11212
      0.00879 [    26]: 22111
ROOT  19:  E=   -2150.4366357964 Eh  1.835 eV  14799.1 cm**-1
      0.31126 [    21]: 21211
      0.28800 [     9]: 12112
      0.15752 [    27]: 22120
      0.05510 [    14]: 20122
      0.05042 [    23]: 22012
      0.04659 [     2]: 02212
      0.03113 [    13]: 12220
      0.01944 [     1]: 02122
      0.01694 [     7]: 11221
      0.01311 [     4]: 10222
      0.00877 [    11]: 12202
ROOT  20:  E=   -2150.4339545998 Eh  1.908 eV  15387.6 cm**-1
      0.25031 [    19]: 21121
      0.18714 [    15]: 20212
      0.15274 [    11]: 12202
      0.12799 [     8]: 12022
      0.08547 [    29]: 22210
      0.05602 [     7]: 11221
      0.03699 [    25]: 22102
      0.03625 [     1]: 02122
      0.01764 [     4]: 10222
      0.01226 [    21]: 21211
      0.01226 [    14]: 20122
      0.01122 [     9]: 12112
      0.00989 [    23]: 22012
ROOT  21:  E=   -2150.4335076754 Eh  1.920 eV  15485.6 cm**-1
      0.21890 [    12]: 12211
      0.18480 [    16]: 20221
      0.14499 [    10]: 12121
      0.09355 [    17]: 21022
      0.08740 [     0]: 01222
      0.05815 [     5]: 11122
      0.05779 [    26]: 22111
      0.05595 [    18]: 21112
      0.03478 [     3]: 02221
      0.03299 [    28]: 22201
      0.02026 [     6]: 11212
      0.00947 [    24]: 22021
ROOT  22:  E=   -2150.4320782513 Eh  1.959 eV  15799.4 cm**-1
      0.72650 [    21]: 21211
      0.10363 [    14]: 20122
      0.07477 [     9]: 12112
      0.02633 [     4]: 10222
      0.01629 [     8]: 12022
      0.01153 [    25]: 22102
      0.01016 [     2]: 02212
      0.00990 [    23]: 22012
      0.00757 [     1]: 02122
      0.00552 [     7]: 11221
      0.00547 [    27]: 22120
ROOT  23:  E=   -2150.4309828221 Eh  1.989 eV  16039.8 cm**-1
      0.25692 [     6]: 11212
      0.16019 [     5]: 11122
      0.11878 [    20]: 21202
      0.09733 [    10]: 12121
      0.07889 [    18]: 21112
      0.07070 [    17]: 21022
      0.07021 [     0]: 01222
      0.04453 [    24]: 22021
      0.03778 [     3]: 02221
      0.03241 [    26]: 22111
      0.02868 [    12]: 12211
ROOT  24:  E=   -2150.4283506421 Eh  2.060 eV  16617.5 cm**-1
      0.43509 [    21]: 21211
      0.20212 [     9]: 12112
      0.07353 [    14]: 20122
      0.05804 [     2]: 02212
      0.05723 [    27]: 22120
      0.05613 [    23]: 22012
      0.02877 [     7]: 11221
      0.02318 [    15]: 20212
      0.02237 [     4]: 10222
      0.02011 [    29]: 22210
      0.01625 [    13]: 12220
      0.00670 [    19]: 21121
ROOT  25:  E=   -2150.4205081391 Eh  2.274 eV  18338.7 cm**-1
      0.25826 [    11]: 12202
      0.18459 [    19]: 21121
      0.14482 [    29]: 22210
      0.12654 [    15]: 20212
      0.09418 [     8]: 12022
      0.06728 [    25]: 22102
      0.04879 [     7]: 11221
      0.02364 [     1]: 02122
      0.02035 [    21]: 21211
      0.01805 [    27]: 22120
      0.01103 [    14]: 20122
ROOT  26:  E=   -2150.4069429150 Eh  2.643 eV  21315.9 cm**-1
      0.34785 [    18]: 21112
      0.29468 [    28]: 22201
      0.17898 [    24]: 22021
      0.09091 [     6]: 11212
      0.05425 [    10]: 12121
      0.02050 [     3]: 02221
      0.00365 [     5]: 11122
      0.00306 [     0]: 01222
ROOT  27:  E=   -2150.4068906871 Eh  2.644 eV  21327.4 cm**-1
      0.44318 [    26]: 22111
      0.24669 [    20]: 21202
      0.13276 [    17]: 21022
      0.09522 [    12]: 12211
      0.04373 [     5]: 11122
      0.02321 [     0]: 01222
      0.01095 [     6]: 11212
ROOT  28:  E=   -2150.3802505622 Eh  3.369 eV  27174.2 cm**-1
      0.25454 [     9]: 12112
      0.15283 [     7]: 11221
      0.15234 [    21]: 21211
      0.13492 [    23]: 22012
      0.12573 [     2]: 02212
      0.08475 [    27]: 22120
      0.03211 [    19]: 21121
      0.02035 [    13]: 12220
      0.01984 [    14]: 20122
      0.00917 [    29]: 22210
      0.00446 [     4]: 10222
      0.00443 [    25]: 22102
      0.00294 [    15]: 20212
ROOT  29:  E=   -2150.3711341332 Eh  3.617 eV  29175.1 cm**-1
      0.57718 [    26]: 22111
      0.12289 [    12]: 12211
      0.11986 [     0]: 01222
      0.05535 [    17]: 21022
      0.03178 [    20]: 21202
      0.02732 [     6]: 11212
      0.02292 [    22]: 21220
      0.01642 [    10]: 12121
      0.01018 [    24]: 22021
      0.00814 [     3]: 02221
      0.00636 [    18]: 21112
ROOT  30:  E=   -2150.3646470779 Eh  3.794 eV  30598.8 cm**-1
      0.51772 [    18]: 21112
      0.16263 [     6]: 11212
      0.09470 [    24]: 22021
      0.08795 [     3]: 02221
      0.05391 [    28]: 22201
      0.02101 [     5]: 11122
      0.02015 [    12]: 12211
      0.01139 [    17]: 21022
      0.01139 [     0]: 01222
      0.00741 [    26]: 22111
      0.00599 [    10]: 12121
      0.00562 [    16]: 20221
ROOT  31:  E=   -2150.3643469027 Eh  3.802 eV  30664.7 cm**-1
      0.23395 [    14]: 20122
      0.19338 [    27]: 22120
      0.14664 [     4]: 10222
      0.14217 [    25]: 22102
      0.12429 [     7]: 11221
      0.04926 [    11]: 12202
      0.04488 [    19]: 21121
      0.02125 [    21]: 21211
      0.01297 [    23]: 22012
      0.01168 [    29]: 22210
      0.00822 [    15]: 20212
      0.00483 [     1]: 02122
      0.00358 [     9]: 12112
ROOT  32:  E=   -2150.3632810259 Eh  3.831 eV  30898.6 cm**-1
      0.31398 [    15]: 20212
      0.21435 [    29]: 22210
      0.11567 [    23]: 22012
      0.10442 [     9]: 12112
      0.09984 [    13]: 12220
      0.04918 [    14]: 20122
      0.03578 [     7]: 11221
      0.02283 [     4]: 10222
      0.01497 [    19]: 21121
      0.01009 [    25]: 22102
      0.00818 [    27]: 22120
      0.00457 [     2]: 02212
      0.00406 [     8]: 12022
ROOT  33:  E=   -2150.3546391014 Eh  4.066 eV  32795.3 cm**-1
      0.29139 [    26]: 22111
      0.22666 [    20]: 21202
      0.11011 [    17]: 21022
      0.10551 [     5]: 11122
      0.08503 [     6]: 11212
      0.04345 [    10]: 12121
      0.04123 [    12]: 12211
      0.02448 [    18]: 21112
      0.02406 [     3]: 02221
      0.02389 [    24]: 22021
      0.02068 [     0]: 01222
      0.00347 [    22]: 21220
ROOT  34:  E=   -2150.3545364517 Eh  4.069 eV  32817.8 cm**-1
      0.32723 [    18]: 21112
      0.18312 [    28]: 22201
      0.14340 [     6]: 11212
      0.11220 [    24]: 22021
      0.07093 [    12]: 12211
      0.05258 [     5]: 11122
      0.03163 [    10]: 12121
      0.02871 [    17]: 21022
      0.02810 [     0]: 01222
      0.02060 [    26]: 22111
ROOT  35:  E=   -2150.2964404848 Eh  5.650 eV  45568.4 cm**-1
      0.30115 [     4]: 10222
      0.17343 [    13]: 12220
      0.10234 [    11]: 12202
      0.08736 [     8]: 12022
      0.06979 [    27]: 22120
      0.05763 [    19]: 21121
      0.04959 [    15]: 20212
      0.04386 [    14]: 20122
      0.03270 [    25]: 22102
      0.03252 [    29]: 22210
      0.02254 [     1]: 02122
      0.01377 [     7]: 11221
      0.00636 [    21]: 21211
      0.00461 [    23]: 22012
ROOT  36:  E=   -2150.2745434894 Eh  6.246 eV  50374.2 cm**-1
      0.21240 [    28]: 22201
      0.15984 [    16]: 20221
      0.13500 [    24]: 22021
      0.12730 [    18]: 21112
      0.10548 [     3]: 02221
      0.06191 [     0]: 01222
      0.04982 [    20]: 21202
      0.03128 [     6]: 11212
      0.03091 [    26]: 22111
      0.02654 [    12]: 12211
      0.02628 [    22]: 21220
      0.01948 [     5]: 11122
      0.00718 [    10]: 12121
      0.00660 [    17]: 21022
ROOT  37:  E=   -2150.2739004163 Eh  6.263 eV  50515.4 cm**-1
      0.24976 [    20]: 21202
      0.17216 [    17]: 21022
      0.12837 [    22]: 21220
      0.10148 [     0]: 01222
      0.09035 [    26]: 22111
      0.07121 [    24]: 22021
      0.04748 [     6]: 11212
      0.04381 [    28]: 22201
      0.03205 [    16]: 20221
      0.02756 [    18]: 21112
      0.02583 [    12]: 12211
      0.00528 [    10]: 12121
      0.00262 [     5]: 11122
ROOT  38:  E=   -2150.2373640306 Eh  7.257 eV  58534.2 cm**-1
      0.50276 [    23]: 22012
      0.14375 [     9]: 12112
      0.11159 [    15]: 20212
      0.09748 [     2]: 02212
      0.07865 [    29]: 22210
      0.04116 [    19]: 21121
      0.01074 [     7]: 11221
      0.00857 [     4]: 10222
ROOT  39:  E=   -2150.2316342025 Eh  7.413 eV  59791.7 cm**-1
      0.59463 [    25]: 22102
      0.15382 [    11]: 12202
      0.06676 [    14]: 20122
      0.05940 [    27]: 22120
      0.05075 [    21]: 21211
      0.02522 [     4]: 10222
      0.02250 [     1]: 02122
      0.01127 [    13]: 12220
      0.00760 [     7]: 11221
      0.00619 [     8]: 12022

                 <<<<<<<<<<<<<<<<<<INITIAL CI STATE CHECK>>>>>>>>>>>>>>>>>>

   E(CAS)= -2150.466473274 Eh DE=    0.000000e+00
   --- Energy gap subspaces: Ext-Act = 1.596   Act-Int = -0.152
   --- current l-shift: Up(Ext-Act) = 1.00   Dn(Act-Int) = 2.15
   N(occ)=  1.40000 1.40000 1.40000 1.40000 1.40000
   ||g|| =     1.338322e+00 Max(G)=    4.276888e-01 Rot=40,35
   --- Orbital Update [   SuperCI]
   SUPERCI-ITER   0: DE=    -0.027686183 <r|r>=      0.022149227
   SUPERCI-ITER   1: DE=    -0.006060957 <r|r>=      0.004938636
   SUPERCI-ITER   2: DE=    -0.002870514 <r|r>=      0.000785756
   SUPERCI-ITER   3: DE=    -0.000324392 <r|r>=      0.000247645
   SUPERCI-ITER   4: DE=    -0.000087062 <r|r>=      0.000060862
   SUPERCI-ITER   5: DE=    -0.000022877 <r|r>=      0.000018975
   SUPERCI-ITER   6: DE=    -0.000006291 <r|r>=      0.000004002
   SUPERCI-ITER   7: DE=    -0.000001146 <r|r>=      0.000000749
   SUPERCI-ITER   8: DE=    -0.000000218 <r|r>=      0.000000165
   SUPERCI-ITER   9: DE=    -0.000000049 <r|r>=      0.000000046
   SUPERCI-ITER  10: DE=    -0.000000012 <r|r>=      0.000000011
   SUPERCI-ITER  11: DE=    -0.000000005 <r|r>=      0.000000006
   SUPERCI-ITER  12: DE=    -0.000000002 <r|r>=      0.000000001
   SUPERCI-ITER  13: DE=    -0.000000000 
   <Psi(SX)|Psi(SX)>=      1.000000000 DE(SX)=-0.037059706
   Largest coefficient in the normalized |SX> wavefunction= 0.057129623
   --- Forming Natural Orbitals

MACRO-ITERATION   2: 
   --- Canonicalize Internal Space
   --- Canonicalize External Space
   --- Inactive Energy E0 = -2128.80850125 Eh
CI-ITERATION   0: 
 -2150.622492049   0.000000000000 (    0.00)
 -2150.622389777   0.000000000000
 -2150.615684632   0.000000000000
 -2150.613710448   0.000000000000
 -2150.613389599   0.000000000000
 -2150.613234572   0.000000000000
 -2150.611753222   0.000000000000
 -2150.543736295   0.000000000000
 -2150.538064021   0.000000000000
 -2150.535559502   0.000000000000
   CI-PROBLEM SOLVED
   DENSITIES MADE
CI-ITERATION   0: 
 -2150.544366726   0.000000000000 (    0.00)
 -2150.544145970   0.000000000000
 -2150.543954375   0.000000000000
 -2150.543251153   0.000000000000
 -2150.540437548   0.000000000000
 -2150.539757385   0.000000000000
 -2150.537883972   0.000000000000
 -2150.532878135   0.000000000000
 -2150.532870806   0.000000000000
 -2150.523856018   0.000000000000
 -2150.523165186   0.000000000000
 -2150.520590872   0.000000000000
 -2150.514387790   0.000000000000
 -2150.513960441   0.000000000000
 -2150.512884955   0.000000000000
 -2150.512331888   0.000000000000
 -2150.511200130   0.000000000000
 -2150.511057604   0.000000000000
 -2150.508683966   0.000000000000
 -2150.508655060   0.000000000000
 -2150.507736525   0.000000000000
 -2150.507144466   0.000000000000
 -2150.506427289   0.000000000000
 -2150.500395847   0.000000000000
 -2150.500081579   0.000000000000
 -2150.499469226   0.000000000000
 -2150.497627288   0.000000000000
 -2150.496191773   0.000000000000
 -2150.442091230   0.000000000000
 -2150.438619341   0.000000000000
 -2150.436778600   0.000000000000
 -2150.434356526   0.000000000000
 -2150.434130660   0.000000000000
 -2150.432901491   0.000000000000
 -2150.432849519   0.000000000000
 -2150.339489423   0.000000000000
 -2150.338365260   0.000000000000
 -2150.335723509   0.000000000000
 -2150.318848409   0.000000000000
 -2150.317637496   0.000000000000
   CI-PROBLEM SOLVED
   DENSITIES MADE
   E(CAS)= -2150.536965524 Eh DE=   -7.049225e-02
   --- Energy gap subspaces: Ext-Act = 0.373   Act-Int = 0.002
   --- current l-shift: Up(Ext-Act) = 1.13   Dn(Act-Int) = 1.50
   N(occ)=  1.40000 1.40000 1.40000 1.40000 1.40000
   ||g|| =     6.684836e-01 Max(G)=    1.804009e-01 Rot=194,18
   --- Orbital Update [   SuperCI]
   SUPERCI-ITER   0: DE=    -0.005794414 <r|r>=      0.000105695
   SUPERCI-ITER   1: DE=    -0.000078973 <r|r>=      0.000011519
   SUPERCI-ITER   2: DE=    -0.000010044 <r|r>=      0.000001849
   SUPERCI-ITER   3: DE=    -0.000000624 <r|r>=      0.000000012
   SUPERCI-ITER   4: DE=    -0.000000012 <r|r>=      0.000000000
   <Psi(SX)|Psi(SX)>=      1.000000000 DE(SX)=-0.005884067
   Largest coefficient in the normalized |SX> wavefunction= 0.089627973
   --- Forming Natural Orbitals

MACRO-ITERATION   3: 
   --- Canonicalize Internal Space
   --- Canonicalize External Space
   --- Inactive Energy E0 = -2128.10605090 Eh
CI-ITERATION   0: 
 -2150.634664585   0.000000000000 (    0.00)
 -2150.634655283   0.000000000000
 -2150.628103554   0.000000000000
 -2150.624299969   0.000000000000
 -2150.624231022   0.000000000000
 -2150.619248711   0.000000000000
 -2150.618911214   0.000000000000
 -2150.558650237   0.000000000000
 -2150.542505080   0.000000000000
 -2150.541787319   0.000000000000
   CI-PROBLEM SOLVED
   DENSITIES MADE
CI-ITERATION   0: 
 -2150.559963529   0.000000000000 (    0.00)
 -2150.559763485   0.000000000000
 -2150.554891692   0.000000000000
 -2150.554882569   0.000000000000
 -2150.552883994   0.000000000000
 -2150.552635358   0.000000000000
 -2150.548098758   0.000000000000
 -2150.539505417   0.000000000000
 -2150.539503889   0.000000000000
 -2150.537351045   0.000000000000
 -2150.536989410   0.000000000000
 -2150.536945997   0.000000000000
 -2150.523347163   0.000000000000
 -2150.523057769   0.000000000000
 -2150.521609450   0.000000000000
 -2150.521591145   0.000000000000
 -2150.519821938   0.000000000000
 -2150.519575145   0.000000000000
 -2150.516677924   0.000000000000
 -2150.516566856   0.000000000000
 -2150.516468183   0.000000000000
 -2150.516375476   0.000000000000
 -2150.512780991   0.000000000000
 -2150.507651846   0.000000000000
 -2150.507468987   0.000000000000
 -2150.503644074   0.000000000000
 -2150.503641737   0.000000000000
 -2150.503522438   0.000000000000
 -2150.451197100   0.000000000000
 -2150.446796389   0.000000000000
 -2150.446641368   0.000000000000
 -2150.441254206   0.000000000000
 -2150.441208324   0.000000000000
 -2150.438544632   0.000000000000
 -2150.438540184   0.000000000000
 -2150.348983589   0.000000000000
 -2150.345318248   0.000000000000
 -2150.344766684   0.000000000000
 -2150.322039187   0.000000000000
 -2150.321210246   0.000000000000
   CI-PROBLEM SOLVED
   DENSITIES MADE
   E(CAS)= -2150.546274304 Eh DE=   -9.308780e-03
   --- Energy gap subspaces: Ext-Act = 0.425   Act-Int = -0.075
   --- current l-shift: Up(Ext-Act) = 0.91   Dn(Act-Int) = 1.41
   N(occ)=  1.40000 1.40000 1.40000 1.40000 1.40000
   ||g|| =     1.744398e-01 Max(G)=   -4.185684e-02 Rot=87,33
   --- Orbital Update [   SuperCI]
   SUPERCI-ITER   0: DE=    -0.000859529 <r|r>=      0.000003907
   SUPERCI-ITER   1: DE=    -0.000004322 <r|r>=      0.000000536
   Warning: Orthogonalization failed (-3e-16)! Terminating Iterations.
   <Psi(SX)|Psi(SX)>=      1.000000000 DE(SX)=-0.000863851
   Largest coefficient in the normalized |SX> wavefunction= 0.010934888
   --- Forming Natural Orbitals

MACRO-ITERATION   4: 
   --- Canonicalize Internal Space
   --- Canonicalize External Space
   --- Inactive Energy E0 = -2128.04430230 Eh
CI-ITERATION   0: 
 -2150.629152473   0.000000000000 (    0.00)
 -2150.629118607   0.000000000000
 -2150.622280071   0.000000000000
 -2150.617493381   0.000000000000
 -2150.617440793   0.000000000000
 -2150.610151909   0.000000000000
 -2150.609264111   0.000000000000
 -2150.554118824   0.000000000000
 -2150.534826802   0.000000000000
 -2150.534092605   0.000000000000
   CI-PROBLEM SOLVED
   DENSITIES MADE
CI-ITERATION   0: 
 -2150.558000904   0.000000000000 (    0.00)
 -2150.557962888   0.000000000000
 -2150.550275813   0.000000000000
 -2150.550244279   0.000000000000
 -2150.548936099   0.000000000000
 -2150.548587600   0.000000000000
 -2150.542489849   0.000000000000
 -2150.533642240   0.000000000000
 -2150.533602969   0.000000000000
 -2150.533595192   0.000000000000
 -2150.532466549   0.000000000000
 -2150.532464987   0.000000000000
 -2150.517184494   0.000000000000
 -2150.516849430   0.000000000000
 -2150.516165669   0.000000000000
 -2150.516145138   0.000000000000
 -2150.512638291   0.000000000000
 -2150.512450839   0.000000000000
 -2150.510633154   0.000000000000
 -2150.510252697   0.000000000000
 -2150.510221345   0.000000000000
 -2150.509988839   0.000000000000
 -2150.505317880   0.000000000000
 -2150.501941551   0.000000000000
 -2150.501729670   0.000000000000
 -2150.496709081   0.000000000000
 -2150.494961847   0.000000000000
 -2150.494959085   0.000000000000
 -2150.447219265   0.000000000000
 -2150.441716708   0.000000000000
 -2150.441615944   0.000000000000
 -2150.435425832   0.000000000000
 -2150.435423753   0.000000000000
 -2150.432480481   0.000000000000
 -2150.432474624   0.000000000000
 -2150.347003090   0.000000000000
 -2150.341262213   0.000000000000
 -2150.340598625   0.000000000000
 -2150.316182314   0.000000000000
 -2150.314821059   0.000000000000
   CI-PROBLEM SOLVED
   DENSITIES MADE
   E(CAS)= -2150.540105007 Eh DE=    6.169297e-03
   --- Energy gap subspaces: Ext-Act = 0.455   Act-Int = -0.120
   --- current l-shift: Up(Ext-Act) = 0.55   Dn(Act-Int) = 1.12
   N(occ)=  1.40000 1.40000 1.40000 1.40000 1.40000
   ||g|| =     4.110666e-01 Max(G)=   -8.967254e-02 Rot=87,32
   --- Orbital Update [   SuperCI]
   SUPERCI-ITER   0: DE=    -0.003614806 <r|r>=      0.000013638
   Warning: Orthogonalization failed (1e-14)! Terminating Iterations.
   <Psi(SX)|Psi(SX)>=      1.000000000 DE(SX)=-0.003614806
   Largest coefficient in the normalized |SX> wavefunction= 0.021327385
   --- Forming Natural Orbitals

MACRO-ITERATION   5: 
   --- Canonicalize Internal Space
   --- Canonicalize External Space
   --- Inactive Energy E0 = -2128.25919876 Eh
CI-ITERATION   0: 
 -2150.634512755   0.000000000000 (    0.00)
 -2150.634497739   0.000000000000
 -2150.628054209   0.000000000000
 -2150.625693298   0.000000000000
 -2150.625508611   0.000000000000
 -2150.624064926   0.000000000000
 -2150.624021352   0.000000000000
 -2150.557510884   0.000000000000
 -2150.545269183   0.000000000000
 -2150.544492829   0.000000000000
   CI-PROBLEM SOLVED
   DENSITIES MADE
CI-ITERATION   0: 
 -2150.555910033   0.000000000000 (    0.00)
 -2150.555524737   0.000000000000
 -2150.554465482   0.000000000000
 -2150.554439041   0.000000000000
 -2150.551602090   0.000000000000
 -2150.551399161   0.000000000000
 -2150.548475915   0.000000000000
 -2150.541570614   0.000000000000
 -2150.541568765   0.000000000000
 -2150.536030500   0.000000000000
 -2150.534739939   0.000000000000
 -2150.534608195   0.000000000000
 -2150.524568158   0.000000000000
 -2150.524395286   0.000000000000
 -2150.522201694   0.000000000000
 -2150.521993790   0.000000000000
 -2150.521458019   0.000000000000
 -2150.521382684   0.000000000000
 -2150.517442057   0.000000000000
 -2150.517393146   0.000000000000
 -2150.517169487   0.000000000000
 -2150.517147557   0.000000000000
 -2150.515306618   0.000000000000
 -2150.508446407   0.000000000000
 -2150.508264515   0.000000000000
 -2150.507515729   0.000000000000
 -2150.507505604   0.000000000000
 -2150.504903314   0.000000000000
 -2150.450119405   0.000000000000
 -2150.446408946   0.000000000000
 -2150.446220171   0.000000000000
 -2150.442089407   0.000000000000
 -2150.442024712   0.000000000000
 -2150.439616922   0.000000000000
 -2150.439612013   0.000000000000
 -2150.345625385   0.000000000000
 -2150.344402716   0.000000000000
 -2150.343831621   0.000000000000
 -2150.322934449   0.000000000000
 -2150.322388306   0.000000000000
   CI-PROBLEM SOLVED
   DENSITIES MADE
   E(CAS)= -2150.547215072 Eh DE=   -7.110064e-03
   --- Energy gap subspaces: Ext-Act = 0.382   Act-Int = -0.031
   --- current l-shift: Up(Ext-Act) = 0.62   Dn(Act-Int) = 1.03
   N(occ)=  1.40000 1.40000 1.40000 1.40000 1.40000
   ||g|| =     2.170601e-01 Max(G)=   -4.875307e-02 Rot=199,20
   --- Orbital Update [   SuperCI]
   SUPERCI-ITER   0: DE=    -0.000589047 <r|r>=      0.000002601
   Warning: Orthogonalization failed (1e-14)! Terminating Iterations.
   <Psi(SX)|Psi(SX)>=      1.000000000 DE(SX)=-0.000589047
   Largest coefficient in the normalized |SX> wavefunction= 0.018827396
   --- Forming Natural Orbitals

MACRO-ITERATION   6: 
   --- Canonicalize Internal Space
   --- Canonicalize External Space
   --- Inactive Energy E0 = -2128.11552682 Eh
CI-ITERATION   0: 
 -2150.636717335   0.000000000000 (    0.00)
 -2150.636713322   0.000000000000
 -2150.630425294   0.000000000000
 -2150.627221890   0.000000000000
 -2150.627137119   0.000000000000
 -2150.623155579   0.000000000000
 -2150.623145920   0.000000000000
 -2150.559999839   0.000000000000
 -2150.545289317   0.000000000000
 -2150.544649299   0.000000000000
   CI-PROBLEM SOLVED
   DENSITIES MADE
CI-ITERATION   0: 
 -2150.559961546   0.000000000000 (    0.00)
 -2150.559768791   0.000000000000
 -2150.555941689   0.000000000000
 -2150.555926928   0.000000000000
 -2150.553926757   0.000000000000
 -2150.553752737   0.000000000000
 -2150.550035527   0.000000000000
 -2150.542400102   0.000000000000
 -2150.542399378   0.000000000000
 -2150.537727775   0.000000000000
 -2150.537395332   0.000000000000
 -2150.537368759   0.000000000000
 -2150.525550983   0.000000000000
 -2150.525450787   0.000000000000
 -2150.523448570   0.000000000000
 -2150.523440432   0.000000000000
 -2150.522397847   0.000000000000
 -2150.522136886   0.000000000000
 -2150.518633869   0.000000000000
 -2150.518627342   0.000000000000
 -2150.518341590   0.000000000000
 -2150.518291282   0.000000000000
 -2150.515772608   0.000000000000
 -2150.509510282   0.000000000000
 -2150.509366273   0.000000000000
 -2150.507138150   0.000000000000
 -2150.507137646   0.000000000000
 -2150.506114597   0.000000000000
 -2150.451482456   0.000000000000
 -2150.447887206   0.000000000000
 -2150.447708926   0.000000000000
 -2150.442770580   0.000000000000
 -2150.442733728   0.000000000000
 -2150.440177977   0.000000000000
 -2150.440175992   0.000000000000
 -2150.348177002   0.000000000000
 -2150.345382798   0.000000000000
 -2150.344952062   0.000000000000
 -2150.323384150   0.000000000000
 -2150.323047492   0.000000000000
   CI-PROBLEM SOLVED
   DENSITIES MADE
   E(CAS)= -2150.548420806 Eh DE=   -1.205734e-03
   --- Energy gap subspaces: Ext-Act = 0.405   Act-Int = -0.054
   --- current l-shift: Up(Ext-Act) = 0.59   Dn(Act-Int) = 1.05
   N(occ)=  1.40000 1.40000 1.40000 1.40000 1.40000
   ||g|| =     5.642149e-02 Max(G)=   -1.297255e-02 Rot=88,32
   --- Orbital Update [   SuperCI]
   SUPERCI-ITER   0: DE=    -0.000102058 <r|r>=      0.000000233
   Warning: Orthogonalization failed (2e-14)! Terminating Iterations.
   <Psi(SX)|Psi(SX)>=      1.000000000 DE(SX)=-0.000102058
   Largest coefficient in the normalized |SX> wavefunction= 0.007281970
   --- Forming Natural Orbitals

MACRO-ITERATION   7: 
   --- Canonicalize Internal Space
   --- Canonicalize External Space
   --- Inactive Energy E0 = -2128.11261727 Eh
CI-ITERATION   0: 
 -2150.636986817   0.000000000000 (    0.00)
 -2150.636983111   0.000000000000
 -2150.630790899   0.000000000000
 -2150.627836016   0.000000000000
 -2150.627762755   0.000000000000
 -2150.624217304   0.000000000000
 -2150.624185789   0.000000000000
 -2150.559981938   0.000000000000
 -2150.545737767   0.000000000000
 -2150.545194764   0.000000000000
   CI-PROBLEM SOLVED
   DENSITIES MADE
CI-ITERATION   0: 
 -2150.559402272   0.000000000000 (    0.00)
 -2150.559268600   0.000000000000
 -2150.555757325   0.000000000000
[...]
 3 106   43458.0    230.1   0.00000   0.00012   0.00000   0.00000000000560   0.00000   0.99865   0.00135
 3 107   43458.0    230.1   0.00000   0.00127   0.00000   0.00000000005743   0.00000   0.99987   0.00013
 3 108   43744.7    228.6   0.00000   0.00000   0.00000   0.00000000000000   0.00000   0.00000   1.00000
 3 109   43744.7    228.6   0.00000   0.00000   0.00000   0.00000000000000   0.00000   0.00000   1.00000
 3 110   63908.1    156.5   0.00000   0.00000   0.00000   0.00000000000001   0.00000   1.00000   0.00000
 3 111   63908.1    156.5   0.00000   0.00000   0.00000   0.00000000000001   0.00000   1.00000   0.00000
 3 112   64445.5    155.2   0.00000   0.00000   0.00000   0.00000000000015   0.00000   1.00000   0.00000
 3 113   64445.5    155.2   0.00000   0.00000   0.00000   0.00000000000001   0.00000   1.00000   0.00000
 3 114   64807.8    154.3   0.00000   0.00000   0.00000   0.00000000000001   0.00000   0.00000   1.00000
 3 115   64807.8    154.3   0.00000   0.00000   0.00000   0.00000000000001   0.00000   0.00000   1.00000
 3 116   68994.8    144.9   0.00000   0.00000   0.00000   0.00000000000001   0.00000   0.00000   1.00000
 3 117   68994.8    144.9   0.00000   0.00000   0.00000   0.00000000000001   0.00000   0.00000   1.00000
 3 118   69483.1    143.9   0.00000   0.00005   0.00000   0.00000000000216   0.00000   0.99499   0.00501
 3 119   69483.1    143.9   0.00000   0.00001   0.00000   0.00000000000029   0.00000   0.96237   0.03763

Done

                 =============================
                 AB INITIO LIGAND FIELD THEORY
                       d7 configuration
                          2 CI blocks
                         MOs 31 to 35
                 =============================

Metal/Atom center is atom 0
orbital phases =   1.0   1.0   1.0   1.0   1.0 
Metal/Atom d-orbital parts of active orbitals
Shell 15
             31        32        33        34        35
dz2     :  0.606572 -0.000000  0.000000 -0.001054  0.000000
dxz     :  0.000000  0.610879 -0.000000  0.000000  0.000000
dyz     :  0.000000  0.000000  0.615572  0.000000  0.000000
dx2y2   :  0.032413 -0.000000 -0.000000  0.587276 -0.000000
dxy     : -0.000000 -0.000000 -0.000000  0.000000  0.610879
Shell 16
             31        32        33        34        35
dz2     :  0.404973 -0.000000  0.000000  0.000232 -0.000000
dxz     :  0.000000  0.404892  0.000000 -0.000000  0.000000
dyz     :  0.000000  0.000000  0.411491 -0.000000 -0.000000
dx2y2   :  0.022544 -0.000000 -0.000000  0.390958 -0.000000
dxy     : -0.000000 -0.000000 -0.000000  0.000000  0.404892
Shell 17
             31        32        33        34        35
dz2     :  0.216297 -0.000000 -0.000000 -0.005044  0.000000
dxz     :  0.000000  0.220334 -0.000000  0.000000 -0.000000
dyz     : -0.000000 -0.000000  0.216941 -0.000000  0.000000
dx2y2   :  0.007048 -0.000000 -0.000000  0.215064 -0.000000
dxy     : -0.000000 -0.000000  0.000000  0.000000  0.220334
Shell 20
             31        32        33        34        35
dz2     :  0.008581  0.000000  0.000000  0.014399 -0.000000
dxz     :  0.000000  0.003825  0.000000 -0.000000  0.000000
dyz     :  0.000000  0.000000  0.016622  0.000000 -0.000000
dx2y2   :  0.014383 -0.000000  0.000000 -0.009130  0.000000
dxy     : -0.000000  0.000000 -0.000000  0.000000  0.003825

Adjusting phases of one-electron integrals               ... done
Adjusting phases of two-electron integrals               ... done


-----------------------------------------------------------------
Computing F0s from 2-electron integrals                  ... done 
-----------------------------------------------------------------
F0   =  0.871367060 a.u. =    23.711 eV =  191243.0 cm**-1
-----------------------------------------------------------------

Preparing for fit                                        ... done
Making fit matrices                                      ... done
Calculating ab initio Hamiltonian matrices               ... 
Calculating fit matrices                                 ... done
Fitting                                                  ... done

------------------------------
AILFT MATRIX ELEMENTS (CASSCF)
--------------------------------

Ligand field one-electron matrix VLFT (a.u.) : 
Orbital          dz2        dxz        dyz        dx2-y2     dxy
  dz2         -5.760410  -0.000000   0.000000  -0.010775   0.000000 
  dxz         -0.000000  -5.756542  -0.000000   0.000000   0.000000 
  dyz          0.000000  -0.000000  -5.766239  -0.000000   0.000000 
  dx2-y2      -0.010775   0.000000  -0.000000  -5.746301  -0.000000 
  dxy          0.000000   0.000000   0.000000  -0.000000  -5.756542 

-------------------------------------------------
Slater-Condon Parameters (electronic repulsion) : 
-------------------------------------------------
F0dd(from 2el Ints)     =  0.871367060 a.u. =    23.711 eV =  191243.0 cm**-1 (fixed)
F2dd                    =  0.392380313 a.u. =    10.677 eV =   86117.5 cm**-1
F4dd                    =  0.249719190 a.u. =     6.795 eV =   54807.0 cm**-1
-------------------
Racah Parameters : 
-------------------
A(F0dd from 2el Ints)   =  0.843620483 a.u. =    22.956 eV =  185153.3 cm**-1
B                       =  0.005176478 a.u. =     0.141 eV =    1136.1 cm**-1
C                       =  0.019818983 a.u. =     0.539 eV =    4349.8 cm**-1
C/B                     =  3.829
-------------------------------------------------------------------------------

-----------------------------------------
The ligand field one electron eigenfunctions:
-----------------------------------------
Orbital    Energy (eV)  Energy(cm-1)      dz2        dxz        dyz        dx2-y2     dxy
    1          0.000        0.0         0.000053   0.000000   1.000000   0.000029  -0.000000 
    2          0.000        0.9        -0.879697   0.000000   0.000061  -0.475535   0.000000 
    3          0.264     2128.1         0.000000   0.991129  -0.000000  -0.000000  -0.132907 
    4          0.264     2128.1         0.000000   0.132907   0.000000   0.000000   0.991129 
    5          0.701     5654.1         0.475535  -0.000000   0.000000  -0.879697   0.000000 
Ligand field orbitals were stored in rho.casscf.lft.gbw

Calculating ligand field Hamiltonian matrices          ... done
Diagonalizing and fitting the ligand field Hamiltonian ... done
Calculating statistical parameters                     ... done

Reference energy AI-LFT =    -22.537906150 au
Reference energy AI     =    -22.537241354 au

------------------------------------------------
COMPARISON OF AB INITIO AND LIGAND FIELD RESULTS
------------------------------------------------

Block   1
---------
   AI-Root   0: E(AI)=    0.000 eV -> LF-Root   0:     0.000 eV    S= 1.000 Delta=    0.000 eV
   AI-Root   1: E(AI)=    0.000 eV -> LF-Root   1:     0.000 eV    S= 1.000 Delta=   -0.000 eV
   AI-Root   2: E(AI)=    0.167 eV -> LF-Root   2:     0.134 eV    S= 1.000 Delta=    0.034 eV
   AI-Root   3: E(AI)=    0.246 eV -> LF-Root   3:     0.217 eV    S= 0.996 Delta=    0.029 eV
   AI-Root   4: E(AI)=    0.246 eV -> LF-Root   4:     0.242 eV    S= 0.997 Delta=    0.005 eV
   AI-Root   5: E(AI)=    0.350 eV -> LF-Root   5:     0.437 eV    S= 0.999 Delta=   -0.087 eV
   AI-Root   6: E(AI)=    0.350 eV -> LF-Root   6:     0.437 eV    S= 1.000 Delta=   -0.087 eV
   AI-Root   7: E(AI)=    2.096 eV -> LF-Root   7:     1.980 eV    S= 0.999 Delta=    0.116 eV
   AI-Root   8: E(AI)=    2.496 eV -> LF-Root   8:     2.572 eV    S= 0.996 Delta=   -0.077 eV
   AI-Root   9: E(AI)=    2.496 eV -> LF-Root   9:     2.597 eV    S= 0.995 Delta=   -0.101 eV
   (Dropping RMS error for the reference energy)
   RMS error for this block =     0.072 eV =     581.5 cm**-1 

Block   2
---------
   AI-Root   0: E(AI)=    2.114 eV -> LF-Root   0:     2.147 eV    S= 1.000 Delta=   -0.033 eV
   AI-Root   1: E(AI)=    2.115 eV -> LF-Root   1:     2.148 eV    S= 0.999 Delta=   -0.033 eV
   AI-Root   2: E(AI)=    2.222 eV -> LF-Root   2:     2.333 eV    S= 0.995 Delta=   -0.111 eV
   AI-Root   3: E(AI)=    2.222 eV -> LF-Root   3:     2.333 eV    S= 0.996 Delta=   -0.111 eV
   AI-Root   4: E(AI)=    2.265 eV -> LF-Root   4:     2.280 eV    S= 0.997 Delta=   -0.015 eV
   AI-Root   5: E(AI)=    2.265 eV -> LF-Root   5:     2.286 eV    S= 0.995 Delta=   -0.021 eV
   AI-Root   6: E(AI)=    2.357 eV -> LF-Root   6:     2.346 eV    S= 0.999 Delta=    0.011 eV
   AI-Root   7: E(AI)=    2.552 eV -> LF-Root   7:     2.538 eV    S= 0.994 Delta=    0.013 eV
   AI-Root   8: E(AI)=    2.552 eV -> LF-Root   8:     2.538 eV    S= 0.994 Delta=    0.013 eV
   AI-Root   9: E(AI)=    2.728 eV -> LF-Root   9:     2.814 eV    S= 0.994 Delta=   -0.085 eV
   AI-Root  10: E(AI)=    2.730 eV -> LF-Root  10:     2.751 eV    S= 0.996 Delta=   -0.021 eV
   AI-Root  11: E(AI)=    2.730 eV -> LF-Root  11:     2.777 eV    S= 0.996 Delta=   -0.047 eV
   AI-Root  12: E(AI)=    3.021 eV -> LF-Root  12:     3.000 eV    S= 0.986 Delta=    0.021 eV
   AI-Root  13: E(AI)=    3.021 eV -> LF-Root  13:     2.998 eV    S= 0.990 Delta=    0.023 eV
   AI-Root  14: E(AI)=    3.082 eV -> LF-Root  14:     3.036 eV    S= 0.998 Delta=    0.045 eV
   AI-Root  15: E(AI)=    3.082 eV -> LF-Root  15:     3.036 eV    S= 0.998 Delta=    0.045 eV
   AI-Root  16: E(AI)=    3.106 eV -> LF-Root  16:     3.099 eV    S= 0.985 Delta=    0.006 eV
   AI-Root  17: E(AI)=    3.106 eV -> LF-Root  17:     3.101 eV    S= 0.982 Delta=    0.005 eV
   AI-Root  18: E(AI)=    3.215 eV -> LF-Root  18:     3.228 eV    S= 0.972 Delta=   -0.012 eV
   AI-Root  19: E(AI)=    3.215 eV -> LF-Root  19:     3.228 eV    S= 0.974 Delta=   -0.013 eV
   AI-Root  20: E(AI)=    3.223 eV -> LF-Root  20:     3.274 eV    S= 0.699 Delta=   -0.051 eV
   AI-Root  21: E(AI)=    3.223 eV -> LF-Root  21:     3.267 eV    S= 0.970 Delta=   -0.044 eV
   AI-Root  22: E(AI)=    3.274 eV -> LF-Root  22:     3.259 eV    S= 0.715 Delta=    0.015 eV
   AI-Root  23: E(AI)=    3.468 eV -> LF-Root  23:     3.508 eV    S= 0.994 Delta=   -0.040 eV
   AI-Root  24: E(AI)=    3.468 eV -> LF-Root  24:     3.509 eV    S= 0.991 Delta=   -0.041 eV
   AI-Root  25: E(AI)=    3.515 eV -> LF-Root  25:     3.586 eV    S= 1.000 Delta=   -0.071 eV
   AI-Root  26: E(AI)=    3.515 eV -> LF-Root  26:     3.586 eV    S= 1.000 Delta=   -0.071 eV
   AI-Root  27: E(AI)=    3.543 eV -> LF-Root  27:     3.494 eV    S= 0.999 Delta=    0.049 eV
   AI-Root  28: E(AI)=    5.075 eV -> LF-Root  28:     5.125 eV    S= 0.999 Delta=   -0.050 eV
   AI-Root  29: E(AI)=    5.159 eV -> LF-Root  29:     5.187 eV    S= 0.992 Delta=   -0.028 eV
   AI-Root  30: E(AI)=    5.159 eV -> LF-Root  30:     5.188 eV    S= 0.991 Delta=   -0.029 eV
   AI-Root  31: E(AI)=    5.289 eV -> LF-Root  31:     5.313 eV    S= 0.999 Delta=   -0.025 eV
   AI-Root  32: E(AI)=    5.289 eV -> LF-Root  32:     5.314 eV    S= 0.999 Delta=   -0.025 eV
   AI-Root  33: E(AI)=    5.362 eV -> LF-Root  33:     5.397 eV    S= 0.999 Delta=   -0.035 eV
   AI-Root  34: E(AI)=    5.362 eV -> LF-Root  34:     5.397 eV    S= 0.999 Delta=   -0.035 eV
   AI-Root  35: E(AI)=    7.882 eV -> LF-Root  35:     7.806 eV    S= 1.000 Delta=    0.075 eV
   AI-Root  36: E(AI)=    7.968 eV -> LF-Root  36:     7.999 eV    S= 0.997 Delta=   -0.030 eV
   AI-Root  37: E(AI)=    7.968 eV -> LF-Root  37:     8.022 eV    S= 0.997 Delta=   -0.054 eV
   AI-Root  38: E(AI)=    8.541 eV -> LF-Root  38:     8.506 eV    S= 1.000 Delta=    0.035 eV
   AI-Root  39: E(AI)=    8.541 eV -> LF-Root  39:     8.507 eV    S= 1.000 Delta=    0.035 eV
   RMS error for this block =     0.046 eV =     368.3 cm**-1 

Total RMS error g=     0.052 eV =     415.7 cm**-1
Note: Dropped RMS error for the reference energy.

Confidence intervals (95%) computed from the square root of the
diagonal elements of the covariance matrix:
H(dz2   ,dz2   )=  0.000345673 a.u. =     0.009 eV =      75.9 cm**-1
H(dxz   ,dz2   )=  0.000292444 a.u. =     0.008 eV =      64.2 cm**-1
H(dxz   ,dxz   )=  0.000345673 a.u. =     0.009 eV =      75.9 cm**-1
H(dyz   ,dz2   )=  0.000292444 a.u. =     0.008 eV =      64.2 cm**-1
H(dyz   ,dxz   )=  0.000292444 a.u. =     0.008 eV =      64.2 cm**-1
H(dyz   ,dyz   )=  0.000345673 a.u. =     0.009 eV =      75.9 cm**-1
H(dx2-y2,dz2   )=  0.000292444 a.u. =     0.008 eV =      64.2 cm**-1
H(dx2-y2,dxz   )=  0.000292444 a.u. =     0.008 eV =      64.2 cm**-1
H(dx2-y2,dyz   )=  0.000292444 a.u. =     0.008 eV =      64.2 cm**-1
H(dx2-y2,dx2-y2)=  0.000345673 a.u. =     0.009 eV =      75.9 cm**-1
H(dxy   ,dz2   )=  0.000292444 a.u. =     0.008 eV =      64.2 cm**-1
H(dxy   ,dxz   )=  0.000292444 a.u. =     0.008 eV =      64.2 cm**-1
H(dxy   ,dyz   )=  0.000292444 a.u. =     0.008 eV =      64.2 cm**-1
H(dxy   ,dx2-y2)=  0.000292444 a.u. =     0.008 eV =      64.2 cm**-1
H(dxy   ,dxy   )=  0.000345673 a.u. =     0.009 eV =      75.9 cm**-1
F2dd            =  0.001241376 a.u. =     0.034 eV =     272.5 cm**-1
F4dd            =  0.001800436 a.u. =     0.049 eV =     395.2 cm**-1
Pearson's correlation coefficient =    1.000 (should be close to 1)

----------------------------------------------
SPIN ORBIT COUPLING (based on CASSCF orbitals)
----------------------------------------------

AI-SOC-X integrals (cm-1)
                  0          1          2          3          4    
      0      -0.000000   0.000000 909.076887  -0.000003   0.000000
      1      -0.000000  -0.000000  -0.000000   0.000000 514.351062
      2     -909.076887   0.000000  -0.000000 -491.418063  -0.000000
      3       0.000003  -0.000000 491.418063  -0.000000  -0.000000
      4      -0.000000 -514.351062   0.000000   0.000000  -0.000000
AI-SOC-Y integrals (cm-1)
                  0          1          2          3          4    
      0       0.000000 -848.913715  -0.000000  -0.000000  -0.000017
      1     848.913715  -0.000000  -0.000001 -491.336009   0.000000
      2       0.000000   0.000001  -0.000000  -0.000000 -513.140745
      3       0.000000 491.336009   0.000000  -0.000000   0.000012
      4       0.000017  -0.000000 513.140745  -0.000012   0.000000
AI-SOC-Z integrals (cm-1)
                  0          1          2          3          4    
      0      -0.000000   0.000002  -0.000000  -0.000000 -53.898176
      1      -0.000002   0.000000 -513.140764  -0.000022   0.000001
      2       0.000000 513.140764   0.000000  -0.000000   0.000013
      3       0.000000   0.000022   0.000000   0.000000 -979.367394
      4      53.898176  -0.000001  -0.000013 979.367394  -0.000000

Fit to the SOC matrix elements
a = 15.000000
b =     0.933 eV =    7527.1 cm**-1
SOC constant zeta =     0.062 eV =     501.8 cm**-1


LF-SOC-X integrals (cm-1)
                  0          1          2          3          4    
      0       0.000000  -0.000000 869.148923  -0.000000  -0.000000
      1       0.000000   0.000000  -0.000000  -0.000000 501.803365
      2     -869.148923   0.000000   0.000000 -501.803365  -0.000000
      3       0.000000   0.000000 501.803365   0.000000  -0.000000
      4       0.000000 -501.803365   0.000000   0.000000   0.000000
LF-SOC-Y integrals (cm-1)
                  0          1          2          3          4    
      0       0.000000 -869.148923  -0.000000  -0.000000  -0.000000
      1     869.148923   0.000000  -0.000000 -501.803365  -0.000000
      2       0.000000   0.000000   0.000000  -0.000000 -501.803365
      3       0.000000 501.803365   0.000000   0.000000  -0.000000
      4       0.000000   0.000000 501.803365   0.000000   0.000000
LF-SOC-Z integrals (cm-1)
                  0          1          2          3          4    
      0       0.000000  -0.000000  -0.000000  -0.000000  -0.000000
      1       0.000000   0.000000 -501.803365  -0.000000  -0.000000
      2       0.000000 501.803365   0.000000  -0.000000  -0.000000
      3       0.000000   0.000000   0.000000   0.000000 -1003.606730
      4       0.000000   0.000000   0.000000 1003.606730   0.000000

RMS error of nonzero matrix elements =   26.1 cm**-1


-----SOC-CONSTANTS-----
---All Values in cm-1---
ZETA_D = 501.80 
------------------------




---AILFT COMPLETED SUCCESFULLY!---

--------------
CASSCF TIMINGS
--------------

Total time                       ...       84.0 sec
Sum of individual times          ...       83.0 sec ( 98.8%)

Calculation of AO operators
   F(Core) operator              ...       31.3 sec ( 37.2%)
   G(Act) operator               ...       30.6 sec ( 36.4%)
   J(AO) operators               ...        0.0 sec (  0.0%)
Calculation of MO transformed quantities
   J(MO) operators               ...        5.1 sec (  6.0%)
   (pq|rs) integrals             ...        0.0 sec (  0.0%)
   AO->MO one electron integrals ...        0.2 sec (  0.2%)
Configuration interaction steps
   CI-setup phase                ...        0.0 sec (  0.0%)
   CI-solution phase             ...        1.0 sec (  1.2%)
   Generation of densities       ...        0.1 sec (  0.1%)
Orbital improvement steps
   Orbital gradient              ...        0.1 sec (  0.1%)
   O(1) converger                ...        0.8 sec (  0.9%)
Properties                       ...        8.7 sec ( 10.4%)
   SOC integral calculation      ...        5.0 sec (  6.0%)
   SSC RMEs (incl. integrals)    ...        0.0 sec (  0.0%)
   SOC RMEs                      ...        0.1 sec (  0.1%)

Maximum memory used throughout the entire CASSCF-calculation: 259.0 MB

-------------------------   --------------------
FINAL SINGLE POINT ENERGY     -2150.548875819530
-------------------------   --------------------


                            ***************************************
                            *     ORCA property calculations      *
                            ***************************************

                                    ---------------------
                                    Active property flags
                                    ---------------------
   (+) Dipole Moment


------------------------------------------------------------------------------
                       ORCA ELECTRIC PROPERTIES CALCULATION
------------------------------------------------------------------------------

Dipole Moment Calculation                       ... on
Quadrupole Moment Calculation                   ... off
Polarizability Calculation                      ... off
GBWName                                         ... rho.gbw
Electron density                                ... rho.scfp
The origin for moment calculation is the CENTER OF MASS  = ( 0.000000,  0.000000 -0.000000)

-------------
DIPOLE MOMENT
-------------
                                X             Y             Z
Electronic contribution:     -0.00000      -0.00000       0.00000
Nuclear contribution   :      0.00000       0.00000      -0.00000
                        -----------------------------------------
Total Dipole Moment    :     -0.00000       0.00000      -0.00000
                        -----------------------------------------
Magnitude (a.u.)       :      0.00000
Magnitude (Debye)      :      0.00000



--------------------
Rotational spectrum 
--------------------
 
Rotational constants in cm-1:     0.000000     0.020526     0.020526 
Rotational constants in MHz :     0.000000   615.349118   615.349118 

 Dipole components along the rotational axes: 
x,y,z [a.u.] :     0.000000    -0.000000     0.000000 
x,y,z [Debye]:     0.000000    -0.000000     0.000000 

 

Timings for individual modules:

Sum of individual times         ...      104.503 sec (=   1.742 min)
GTO integral calculation        ...        4.476 sec (=   0.075 min)   4.3 %
Relativistic integrals          ...        3.949 sec (=   0.066 min)   3.8 %
SCF iterations                  ...        4.490 sec (=   0.075 min)   4.3 %
CASSCF iterations               ...       91.587 sec (=   1.526 min)  87.6 %
                             ****ORCA TERMINATED NORMALLY****
TOTAL RUN TIME: 0 days 0 hours 1 minutes 50 seconds 159 msec
