
                                 *****************
                                 * O   R   C   A *
                                 *****************

                                            #,                                       
                                            ###                                      
                                            ####                                     
                                            #####                                    
                                            ######                                   
                                           ########,                                 
                                     ,,################,,,,,                         
                               ,,#################################,,                 
                          ,,##########################################,,             
                       ,#########################################, ''#####,          
                    ,#############################################,,   '####,        
                  ,##################################################,,,,####,       
                ,###########''''           ''''###############################       
              ,#####''   ,,,,##########,,,,          '''####'''          '####       
            ,##' ,,,,###########################,,,                        '##       
           ' ,,###''''                  '''############,,,                           
         ,,##''                                '''############,,,,        ,,,,,,###''
      ,#''                                            '''#######################'''  
     '                                                          ''''####''''         
             ,#######,   #######,   ,#######,      ##                                
            ,#'     '#,  ##    ##  ,#'     '#,    #''#        ######   ,####,        
            ##       ##  ##   ,#'  ##            #'  '#       #        #'  '#        
            ##       ##  #######   ##           ,######,      #####,   #    #        
            '#,     ,#'  ##    ##  '#,     ,#' ,#      #,         ##   #,  ,#        
             '#######'   ##     ##  '#######'  #'      '#     #####' # '####'        



                  #######################################################
                  #                        -***-                        #
                  #          Department of theory and spectroscopy      #
                  #    Directorship and core code : Frank Neese         #
                  #        Max Planck Institute fuer Kohlenforschung    #
                  #                Kaiser Wilhelm Platz 1               #
                  #                 D-45470 Muelheim/Ruhr               #
                  #                      Germany                        #
                  #                                                     #
                  #                  All rights reserved                #
                  #                        -***-                        #
                  #######################################################


                         Program Version 5.0.4 -  RELEASE  -


 With contributions from (in alphabetic order):
   Daniel Aravena         : Magnetic Suceptibility
   Michael Atanasov       : Ab Initio Ligand Field Theory (pilot matlab implementation)
   Alexander A. Auer      : GIAO ZORA, VPT2 properties, NMR spectrum
   Ute Becker             : Parallelization
   Giovanni Bistoni       : ED, misc. LED, open-shell LED, HFLD
   Martin Brehm           : Molecular dynamics
   Dmytro Bykov           : SCF Hessian
   Vijay G. Chilkuri      : MRCI spin determinant printing, contributions to CSF-ICE
   Dipayan Datta          : RHF DLPNO-CCSD density
   Achintya Kumar Dutta   : EOM-CC, STEOM-CC
   Dmitry Ganyushin       : Spin-Orbit,Spin-Spin,Magnetic field MRCI
   Miquel Garcia          : C-PCM and meta-GGA Hessian, CC/C-PCM, Gaussian charge scheme
   Yang Guo               : DLPNO-NEVPT2, F12-NEVPT2, CIM, IAO-localization
   Andreas Hansen         : Spin unrestricted coupled pair/coupled cluster methods
   Benjamin Helmich-Paris : MC-RPA, TRAH-SCF, COSX integrals
   Lee Huntington         : MR-EOM, pCC
   Robert Izsak           : Overlap fitted RIJCOSX, COSX-SCS-MP3, EOM
   Marcus Kettner         : VPT2
   Christian Kollmar      : KDIIS, OOCD, Brueckner-CCSD(T), CCSD density, CASPT2, CASPT2-K
   Simone Kossmann        : Meta GGA functionals, TD-DFT gradient, OOMP2, MP2 Hessian
   Martin Krupicka        : Initial AUTO-CI
   Lucas Lang             : DCDCAS
   Marvin Lechner         : AUTO-CI (C++ implementation), FIC-MRCC
   Dagmar Lenk            : GEPOL surface, SMD
   Dimitrios Liakos       : Extrapolation schemes; Compound Job, initial MDCI parallelization
   Dimitrios Manganas     : Further ROCIS development; embedding schemes
   Dimitrios Pantazis     : SARC Basis sets
   Anastasios Papadopoulos: AUTO-CI, single reference methods and gradients
   Taras Petrenko         : DFT Hessian,TD-DFT gradient, ASA, ECA, R-Raman, ABS, FL, XAS/XES, NRVS
   Peter Pinski           : DLPNO-MP2, DLPNO-MP2 Gradient
   Christoph Reimann      : Effective Core Potentials
   Marius Retegan         : Local ZFS, SOC
   Christoph Riplinger    : Optimizer, TS searches, QM/MM, DLPNO-CCSD(T), (RO)-DLPNO pert. Triples
   Tobias Risthaus        : Range-separated hybrids, TD-DFT gradient, RPA, STAB
   Michael Roemelt        : Original ROCIS implementation
   Masaaki Saitow         : Open-shell DLPNO-CCSD energy and density
   Barbara Sandhoefer     : DKH picture change effects
   Avijit Sen             : IP-ROCIS
   Kantharuban Sivalingam : CASSCF convergence, NEVPT2, FIC-MRCI
   Bernardo de Souza      : ESD, SOC TD-DFT
   Georgi Stoychev        : AutoAux, RI-MP2 NMR, DLPNO-MP2 response
   Willem Van den Heuvel  : Paramagnetic NMR
   Boris Wezisla          : Elementary symmetry handling
   Frank Wennmohs         : Technical directorship


 We gratefully acknowledge several colleagues who have allowed us to
 interface, adapt or use parts of their codes:
   Stefan Grimme, W. Hujo, H. Kruse, P. Pracht,  : VdW corrections, initial TS optimization,
                  C. Bannwarth, S. Ehlert          DFT functionals, gCP, sTDA/sTD-DF
   Ed Valeev, F. Pavosevic, A. Kumar             : LibInt (2-el integral package), F12 methods
   Garnet Chan, S. Sharma, J. Yang, R. Olivares  : DMRG
   Ulf Ekstrom                                   : XCFun DFT Library
   Mihaly Kallay                                 : mrcc  (arbitrary order and MRCC methods)
   Jiri Pittner, Ondrej Demel                    : Mk-CCSD
   Frank Weinhold                                : gennbo (NPA and NBO analysis)
   Christopher J. Cramer and Donald G. Truhlar   : smd solvation model
   Lars Goerigk                                  : TD-DFT with DH, B97 family of functionals
   V. Asgeirsson, H. Jonsson                     : NEB implementation
   FAccTs GmbH                                   : IRC, NEB, NEB-TS, DLPNO-Multilevel, CI-OPT
                                                   MM, QMMM, 2- and 3-layer-ONIOM, Crystal-QMMM,
                                                   LR-CPCM, SF, NACMEs, symmetry and pop. for TD-DFT,
                                                   nearIR, NL-DFT gradient (VV10), updates on ESD,
                                                   ML-optimized integration grids
   S Lehtola, MJT Oliveira, MAL Marques          : LibXC Library
   Liviu Ungur et al                             : ANISO software


 Your calculation uses the libint2 library for the computation of 2-el integrals
 For citations please refer to: http://libint.valeyev.net

 Your ORCA version has been built with support for libXC version: 5.1.0
 For citations please refer to: https://tddft.org/programs/libxc/

 This ORCA versions uses:
   CBLAS   interface :  Fast vector & matrix operations
   LAPACKE interface :  Fast linear algebra routines
   SCALAPACK package :  Parallel linear algebra routines
   Shared memory     :  Shared parallel matrices
   BLAS/LAPACK       :  OpenBLAS 0.3.15  USE64BITINT DYNAMIC_ARCH NO_AFFINITY Zen SINGLE_THREADED
        Core in use  :  Zen
   Copyright (c) 2011-2014, The OpenBLAS Project




***************************************
The coordinates will be read from file: geo.xyz
***************************************


================================================================================

----- Orbital basis set information -----
Your calculation utilizes the basis: DKH-def2-TZVPP
   Exponents from def2-TZVPP [F. Weigend and R. Ahlrichs, Phys. Chem. Chem. Phys. 7, 3297 (2005)],
   recontracted for DKH2 by D. A. Pantazis.

----- AuxJ basis set information -----
Your calculation utilizes the AutoAux generation procedure.
  G. L. Stoychev, A. A. Auer, F. Neese, J. Chem. Theory Comput. 13, 554 (2017)

----- AuxC basis set information -----
Your calculation utilizes the AutoAux generation procedure.
  G. L. Stoychev, A. A. Auer, F. Neese, J. Chem. Theory Comput. 13, 554 (2017)

----- AuxJK basis set information -----
Your calculation utilizes the AutoAux generation procedure.
  G. L. Stoychev, A. A. Auer, F. Neese, J. Chem. Theory Comput. 13, 554 (2017)

================================================================================
                                        WARNINGS
                       Please study these warnings very carefully!
================================================================================


INFO   : the flag for use of the SHARK integral package has been found!

================================================================================
                                       INPUT FILE
================================================================================
NAME = rho.inp
|  1> !CASSCF  DKH DKH-def2-TZVPP  RIJCOSX NoSFitting VeryTightSCF autoaux moread SlowConv
|  2> %moinp "orb.gbw"
|  3> %pal
|  4> nprocs 10
|  5> end
|  6> %maxcore 4000
|  7> # swap
|  8> %scf
|  9>  Rotate
| 10>   { 34, 32 }
| 11>  end
| 12> end
| 13> #
| 14> %rel
| 15>  picturechange 2
| 16> end
| 17> %casscf
| 18>  nel  7
| 19>  norb 5
| 20>  mult 4,2
| 21>  nroots 10,40
| 22>  maxiter 100
| 23>  ActOrbs dOrbs
| 24>  rel
| 25>   printlevel 3
| 26>   dosoc true
| 27>   gtensor true
| 28>   quad true
| 29>  end
| 30> end
| 31> * xyzfile 2 4 geo.xyz *
| 32> 
| 33>                          ****END OF INPUT****
================================================================================

                       ****************************
                       * Single Point Calculation *
                       ****************************

---------------------------------
CARTESIAN COORDINATES (ANGSTROEM)
---------------------------------
  Co     0.000860   -0.005199   -0.000732
  N      1.857580   -0.417343   -0.213131
  C      2.933018   -0.050306    0.808992
  C      2.934308    0.628832   -0.499825
  H      2.088895   -1.305500   -0.673736
  H      3.639077   -0.856818    1.007370
  H      2.570857    0.488833    1.684491
  H      3.641479    0.325955   -1.272200
  H      2.573417    1.655462   -0.563757
  N     -1.854394    0.408689    0.219547
  C     -2.935337   -0.633762    0.504527
  C     -2.935533    0.051686   -0.800684
  H     -2.080030    1.295835    0.685004
  H     -3.638342   -0.331511    1.280925
  H     -2.578671   -1.662244    0.561930
  H     -3.638161    0.862793   -0.992384
  H     -2.579023   -0.484745   -1.680127

----------------------------
CARTESIAN COORDINATES (A.U.)
----------------------------
  NO LB      ZA    FRAG     MASS         X           Y           Z
   0 Co   27.0000    0    58.930    0.001624   -0.009824   -0.001383
   1 N     7.0000    0    14.007    3.510317   -0.788663   -0.402759
   2 C     6.0000    0    12.011    5.542600   -0.095064    1.528772
   3 C     6.0000    0    12.011    5.545039    1.188320   -0.944533
   4 H     1.0000    0     1.008    3.947440   -2.467037   -1.273176
   5 H     1.0000    0     1.008    6.876859   -1.619152    1.903653
   6 H     1.0000    0     1.008    4.858216    0.923761    3.183226
   7 H     1.0000    0     1.008    6.881398    0.615965   -2.404109
   8 H     1.0000    0     1.008    4.863053    3.128369   -1.065345
   9 N     7.0000    0    14.007   -3.504296    0.772310    0.414884
  10 C     6.0000    0    12.011   -5.546982   -1.197637    0.953418
  11 C     6.0000    0    12.011   -5.547353    0.097673   -1.513073
  12 H     1.0000    0     1.008   -3.930686    2.448773    1.294469
  13 H     1.0000    0     1.008   -6.875471   -0.626464    2.420597
  14 H     1.0000    0     1.008   -4.872982   -3.141187    1.061894
  15 H     1.0000    0     1.008   -6.875128    1.630442   -1.875334
  16 H     1.0000    0     1.008   -4.873647   -0.916035   -3.174980

--------------------------------
INTERNAL COORDINATES (ANGSTROEM)
--------------------------------
 Co     0   0   0     0.000000000000     0.00000000     0.00000000
 N      1   0   0     1.913735814513     0.00000000     0.00000000
 C      2   1   0     1.528403663350   123.83006639     0.00000000
 C      3   2   1     1.474527416827    61.15940314   248.32745744
 H      2   1   3     1.026882023721   117.03912640   144.48633438
 H      3   2   1     1.090108340729   113.56390941   135.70262243
 H      3   2   1     1.090105744858   114.96723798   359.10983628
 H      4   3   2     1.090131357931   120.09882160   257.98069825
 H      4   3   2     1.090091183289   119.04741021   104.22699297
 N      1   2   3     1.913580715738   179.75442807   346.49707727
 C     10   1   2     1.528513939909   124.02688442   264.25963922
 C     11  10   1     1.474250798906    61.17959347   248.29552926
 H     10   1   2     1.026932139543   116.87493827    48.81205564
 H     11  10   1     1.090122264322   113.56231745   135.67833681
 H     11  10   1     1.090082827326   114.95434322   359.08621197
 H     12  11  10     1.090105423658   120.11428695   258.01001848
 H     12  11  10     1.090081471003   119.03987816   104.20120305

---------------------------
INTERNAL COORDINATES (A.U.)
---------------------------
 Co     0   0   0     0.000000000000     0.00000000     0.00000000
 N      1   0   0     3.616436582106     0.00000000     0.00000000
 C      2   1   0     2.888264345813   123.83006639     0.00000000
 C      3   2   1     2.786452994762    61.15940314   248.32745744
 H      2   1   3     1.940525796679   117.03912640   144.48633438
 H      3   2   1     2.060006220280   113.56390941   135.70262243
 H      3   2   1     2.060001314797   114.96723798   359.10983628
 H      4   3   2     2.060049716489   120.09882160   257.98069825
 H      4   3   2     2.059973797419   119.04741021   104.22699297
 N      1   2   3     3.616143487898   179.75442807   346.49707727
 C     10   1   2     2.888472738309   124.02688442   264.25963922
 C     11  10   1     2.785930262647    61.17959347   248.29552926
 H     10   1   2     1.940620501858   116.87493827    48.81205564
 H     11  10   1     2.060032532059   113.56231745   135.67833681
 H     11  10   1     2.059958006936   114.95434322   359.08621197
 H     12  11  10     2.060000707816   120.11428695   258.01001848
 H     12  11  10     2.059955443858   119.03987816   104.20120305

---------------------
BASIS SET INFORMATION
---------------------
There are 4 groups of distinct atoms

 Group   1 Type Co  : 17s12p7d2f1g contracted to 10s7p4d2f1g pattern {8111111111/6111111/4111/11/1}
 Group   2 Type N   : 11s6p2d1f contracted to 6s3p2d1f pattern {611111/411/11/1}
 Group   3 Type C   : 11s6p2d1f contracted to 6s3p2d1f pattern {611111/411/11/1}
 Group   4 Type H   : 5s2p1d contracted to 3s2p1d pattern {311/11/1}

Atom   0Co   basis set group =>   1
Atom   1N    basis set group =>   2
Atom   2C    basis set group =>   3
Atom   3C    basis set group =>   3
Atom   4H    basis set group =>   4
Atom   5H    basis set group =>   4
Atom   6H    basis set group =>   4
Atom   7H    basis set group =>   4
Atom   8H    basis set group =>   4
Atom   9N    basis set group =>   2
Atom  10C    basis set group =>   3
Atom  11C    basis set group =>   3
Atom  12H    basis set group =>   4
Atom  13H    basis set group =>   4
Atom  14H    basis set group =>   4
Atom  15H    basis set group =>   4
Atom  16H    basis set group =>   4
---------------------------------
AUXILIARY/J BASIS SET INFORMATION
---------------------------------
There are 4 groups of distinct atoms

 Group   1 Type Co  : 22s18p17d17f16g6h3i contracted to 22s18p17d17f16g6h3i pattern {1111111111111111111111/111111111111111111/11111111111111111/11111111111111111/1111111111111111/111111/111}
 Group   2 Type N   : 16s13p12d7f3g contracted to 16s13p12d7f3g pattern {1111111111111111/1111111111111/111111111111/1111111/111}
 Group   3 Type C   : 16s13p12d7f3g contracted to 16s13p12d7f3g pattern {1111111111111111/1111111111111/111111111111/1111111/111}
 Group   4 Type H   : 11s4p3d2f contracted to 11s4p3d2f pattern {11111111111/1111/111/11}

Atom   0Co   basis set group =>   1
Atom   1N    basis set group =>   2
Atom   2C    basis set group =>   3
Atom   3C    basis set group =>   3
Atom   4H    basis set group =>   4
Atom   5H    basis set group =>   4
Atom   6H    basis set group =>   4
Atom   7H    basis set group =>   4
Atom   8H    basis set group =>   4
Atom   9N    basis set group =>   2
Atom  10C    basis set group =>   3
Atom  11C    basis set group =>   3
Atom  12H    basis set group =>   4
Atom  13H    basis set group =>   4
Atom  14H    basis set group =>   4
Atom  15H    basis set group =>   4
Atom  16H    basis set group =>   4
---------------------------------
AUXILIARY/C BASIS SET INFORMATION
---------------------------------
There are 4 groups of distinct atoms

 Group   1 Type Co  : 22s18p17d17f16g6h3i contracted to 22s18p17d17f16g6h3i pattern {1111111111111111111111/111111111111111111/11111111111111111/11111111111111111/1111111111111111/111111/111}
 Group   2 Type N   : 16s13p12d7f3g contracted to 16s13p12d7f3g pattern {1111111111111111/1111111111111/111111111111/1111111/111}
 Group   3 Type C   : 16s13p12d7f3g contracted to 16s13p12d7f3g pattern {1111111111111111/1111111111111/111111111111/1111111/111}
 Group   4 Type H   : 11s4p3d2f contracted to 11s4p3d2f pattern {11111111111/1111/111/11}

Atom   0Co   basis set group =>   1
Atom   1N    basis set group =>   2
Atom   2C    basis set group =>   3
Atom   3C    basis set group =>   3
Atom   4H    basis set group =>   4
Atom   5H    basis set group =>   4
Atom   6H    basis set group =>   4
Atom   7H    basis set group =>   4
Atom   8H    basis set group =>   4
Atom   9N    basis set group =>   2
Atom  10C    basis set group =>   3
Atom  11C    basis set group =>   3
Atom  12H    basis set group =>   4
Atom  13H    basis set group =>   4
Atom  14H    basis set group =>   4
Atom  15H    basis set group =>   4
Atom  16H    basis set group =>   4
----------------------------------
AUXILIARY/JK BASIS SET INFORMATION
----------------------------------
There are 4 groups of distinct atoms

 Group   1 Type Co  : 22s18p17d17f16g6h3i contracted to 22s18p17d17f16g6h3i pattern {1111111111111111111111/111111111111111111/11111111111111111/11111111111111111/1111111111111111/111111/111}
 Group   2 Type N   : 16s13p12d7f3g contracted to 16s13p12d7f3g pattern {1111111111111111/1111111111111/111111111111/1111111/111}
 Group   3 Type C   : 16s13p12d7f3g contracted to 16s13p12d7f3g pattern {1111111111111111/1111111111111/111111111111/1111111/111}
 Group   4 Type H   : 11s4p3d2f contracted to 11s4p3d2f pattern {11111111111/1111/111/11}

Atom   0Co   basis set group =>   1
Atom   1N    basis set group =>   2
Atom   2C    basis set group =>   3
Atom   3C    basis set group =>   3
Atom   4H    basis set group =>   4
Atom   5H    basis set group =>   4
Atom   6H    basis set group =>   4
Atom   7H    basis set group =>   4
Atom   8H    basis set group =>   4
Atom   9N    basis set group =>   2
Atom  10C    basis set group =>   3
Atom  11C    basis set group =>   3
Atom  12H    basis set group =>   4
Atom  13H    basis set group =>   4
Atom  14H    basis set group =>   4
Atom  15H    basis set group =>   4
Atom  16H    basis set group =>   4


           ************************************************************
           *        Program running with 10 parallel MPI-processes    *
           *              working on a common directory               *
           ************************************************************
------------------------------------------------------------------------------
                           ORCA GTO INTEGRAL CALCULATION
                           -- RI-GTO INTEGRALS CHOSEN --
------------------------------------------------------------------------------
------------------------------------------------------------------------------
                   ___                                                        
                  /   \      - P O W E R E D   B Y -                         
                 /     \                                                     
                 |  |  |   _    _      __       _____    __    __             
                 |  |  |  | |  | |    /  \     |  _  \  |  |  /  |          
                  \  \/   | |  | |   /    \    | | | |  |  | /  /          
                 / \  \   | |__| |  /  /\  \   | |_| |  |  |/  /          
                |  |  |   |  __  | /  /__\  \  |    /   |      \           
                |  |  |   | |  | | |   __   |  |    \   |  |\   \          
                \     /   | |  | | |  |  |  |  | |\  \  |  | \   \       
                 \___/    |_|  |_| |__|  |__|  |_| \__\ |__|  \__/        
                                                                              
                      - O R C A' S   B I G   F R I E N D -                    
                                      &                                       
                       - I N T E G R A L  F E E D E R -                       
                                                                              
 v1 FN, 2020, v2 2021                                                         
------------------------------------------------------------------------------


Reading SHARK input file rho.SHARKINP.tmp ... ok
----------------------
SHARK INTEGRAL PACKAGE
----------------------

Number of atoms                             ...     17
Number of basis functions                   ...    406
Number of shells                            ...    156
Maximum angular momentum                    ...      4
Integral batch strategy                     ... SHARK/LIBINT Hybrid
RI-J (if used) integral strategy            ... SPLIT-RIJ (Revised 2003 algorithm where possible)
Printlevel                                  ...      1
Contraction scheme used                     ... SEGMENTED contraction
Coulomb Range Separation                    ... NOT USED
Exchange Range Separation                   ... NOT USED
Finite Nucleus Model                        ... NOT USED
Auxiliary Coulomb fitting basis             ... AVAILABLE
   # of basis functions in Aux-J            ...   2195
   # of shells in Aux-J                     ...    605
   Maximum angular momentum in Aux-J        ...      6
Auxiliary J/K fitting basis                 ... AVAILABLE
   # of basis functions in Aux-JK           ...   2195
   # of shells in Aux-JK                    ...    605
   Maximum angular momentum in Aux-JK       ...      6
Auxiliary Correlation fitting basis         ... AVAILABLE
   # of basis functions in Aux-C            ...   2195
   # of shells in Aux-C                     ...    605
   Maximum angular momentum in Aux-C        ...      6
Auxiliary 'external' fitting basis          ... NOT available
Integral threshold                          ...     1.000000e-12
Primitive cut-off                           ...     1.000000e-14
Primitive pair pre-selection threshold      ...     1.000000e-14

Calculating pre-screening integrals         ... done (  0.1 sec) Dimension = 156
Organizing shell pair data                  ... done (  0.1 sec)
Shell pair information
Total number of shell pairs                 ...     12246
Shell pairs after pre-screening             ...      9983
Total number of primitive shell pairs       ...     28885
Primitive shell pairs kept                  ...     18566
          la=0 lb=0:   2340 shell pairs
          la=1 lb=0:   2820 shell pairs
          la=1 lb=1:    884 shell pairs
          la=2 lb=0:   1568 shell pairs
          la=2 lb=1:    964 shell pairs
          la=2 lb=2:    279 shell pairs
          la=3 lb=0:    494 shell pairs
          la=3 lb=1:    306 shell pairs
          la=3 lb=2:    160 shell pairs
          la=3 lb=3:     32 shell pairs
          la=4 lb=0:     60 shell pairs
          la=4 lb=1:     41 shell pairs
          la=4 lb=2:     26 shell pairs
          la=4 lb=3:      8 shell pairs
          la=4 lb=4:      1 shell pairs

Calculating one electron integrals          ... done (  0.0 sec)
Calculating RI/J V-Matrix + Cholesky decomp.... done (  0.3 sec)
Calculating RI/JK V-Matrix + Cholesky decomp... done (  0.3 sec)
Calculating RI/C V-Matrix + Cholesky decomp.... done (  0.3 sec)
Calculating Nuclear repulsion               ... done (  0.0 sec) ENN=    469.092715421233 Eh

SHARK setup successfully completed in   1.5 seconds

Maximum memory used throughout the entire GTOINT-calculation: 43.7 MB


           ************************************************************
           *        Program running with 10 parallel MPI-processes    *
           *              working on a common directory               *
           ************************************************************
------------------------------------------------------------------------------
                          ORCA RELATIVISTIC HAMILTONIAN
------------------------------------------------------------------------------

Relativistic Method            ... DKH
Order of DKH treatment         ...   2
Treatment of potential         ... V(e,N)
Eps parameter for DKH          ...   0.00000000010000
Nucleus model                  ... Point Nucleus
Speed of light used            ... 137.03598950000000


            ************************************************
            *        DOUGLAS-KROLL-HESS HAMILTONIAN        *
            *   Programmed by FN according to literature   *
            *        procedures. Special thanks to         *
            *       B.A. Hess, M. Reiher and A. Wolf       *
            *     University Erlangen-Nuernberg/Bonn       *
            ************************************************

Uncontracting the basis (first version)        ... done
Number of contracted basis functions           ...  406
Number of uncontracted basis functions         ...  547
Initializing the DKH file                      ... done
Calculating the relativistic integrals         ... done
Storing DKH matrices                           ... done
Code used for DKH trafo                        ... ORCA
Computing the DKH transformation               ... done
Storing the transformation variables           ... done
Transforming V and pVp to p**2 space           ... done
First transformation of V and pVp              ... done
Second transformation of Veff                  ... done
Adding kinetic energy                          ... done
Back transformation of Veff to r-space         ... done
Recovering DKH matrices                        ... done
Recontracting the H-matrix (first version)     ... done
Computing the DKH correction to the H-matrix   ... done
Reading the original H-matrix                  ... done
Adding DKH correction to the H-matrix          ... done
Storing the new modified H-matrix              ... done

Maximum memory used throughout the entire REL-calculation: 74.5 MB


           ************************************************************
           *        Program running with 10 parallel MPI-processes    *
           *              working on a common directory               *
           ************************************************************
-------------------------------------------------------------------------------
                                 ORCA SCF
-------------------------------------------------------------------------------

------------
SCF SETTINGS
------------
Hamiltonian:
 Ab initio Hamiltonian  Method          .... Hartree-Fock(GTOs)
 RI-approximation to the Coulomb term is turned on
   Number of AuxJ basis functions       .... 2195
   RIJ-COSX (HFX calculated with COS-X)).... on

Relativistic Settings:
 Scalar relativistic method             .... Douglas-Kroll-Hess
 Order of DKH procedure    Order        ....    2
 Mode of DKH-treatment                  .... V=V(e,N)
 Speed of light used       Velit        ....       137.035989
 Cutoff-constant           Eps          ....            1e-10 


General Settings:
 Integral files         IntName         .... rho
 Hartree-Fock type      HFTyp           .... CASSCF
 Total Charge           Charge          ....    2
 Multiplicity           Mult            ....    4
 Number of Electrons    NEL             ....   73
 Basis Dimension        Dim             ....  406
 Nuclear Repulsion      ENuc            ....    469.0927154212 Eh


Diagonalization of the overlap matrix:
Smallest eigenvalue                        ... 2.527e-04
Time for diagonalization                   ...    0.035 sec
Threshold for overlap eigenvalues          ... 1.000e-08
Number of eigenvalues below threshold      ... 0
Time for construction of square roots      ...    0.021 sec
Total time needed                          ...    0.058 sec

---------------------
INITIAL GUESS: MOREAD
---------------------
Guess MOs are being read from file: orb.gbw
Input Geometry matches current geometry (good)
Atom 0: N(Shells)= 24 and 18 - projection required
Input basis set needs projection
NBasis(read)= 390
NBasis(calc)= 406
Basis set overlap was calculated
Using GuessMode=CMatrix for the initial guess
Initial orthogonal set was formed
CASSCF - fitting 2 shells:
   closed-shell contains  33 orbitals (  0 ...  32)
   active space contains   5 orbitals ( 33 ...  37)
Virtual orbitals were projected
Gram-Schmidt orthogonalization of all MOs with pivot on actives
-----------------
ORBITAL ROTATIONS
-----------------
  Rotation  34(0)   32(0) cos(t)= 0.000000  sin(t)= 1.000000
  Orbital Energies were swapped
Initial density was built
Canonicalizing active space vectors CAS(7,5) {33-37} C(406,406) Cact Ract BOVL(390,406) COVL Diag BackTrafo Restore
Active space vectors have been canonicalized
                      ------------------
                      INITIAL GUESS DONE (   0.9 sec)
                      ------------------
--------------------
COSX GRID GENERATION
--------------------

GRIDX 1
-------
General Integration Accuracy     IntAcc      ... 3.816
Radial Grid Type                 RadialGrid  ... OptM3 with GC (2021)
Angular Grid (max. ang.)         AngularGrid ... 1 (Lebedev-50)
Angular grid pruning method      GridPruning ... 4 (adaptive)
Weight generation scheme         WeightScheme... Becke
Basis function cutoff            BFCut       ... 1.0000e-12
Integration weight cutoff        WCut        ... 1.0000e-14
Angular grids for H and He will be reduced by one unit
Partially contracted basis set               ... on
Rotationally invariant grid construction     ... off

Total number of grid points                  ...    10062
Total number of batches                      ...      167
Average number of points per batch           ...       60
Average number of grid points per atom       ...      592

GRIDX 2
-------
General Integration Accuracy     IntAcc      ... 4.020
Radial Grid Type                 RadialGrid  ... OptM3 with GC (2021)
Angular Grid (max. ang.)         AngularGrid ... 2 (Lebedev-110)
Angular grid pruning method      GridPruning ... 4 (adaptive)
Weight generation scheme         WeightScheme... Becke
Basis function cutoff            BFCut       ... 1.0000e-12
Integration weight cutoff        WCut        ... 1.0000e-14
Angular grids for H and He will be reduced by one unit
Partially contracted basis set               ... on
Rotationally invariant grid construction     ... off

Total number of grid points                  ...    21190
Total number of batches                      ...      341
Average number of points per batch           ...       62
Average number of grid points per atom       ...     1246

GRIDX 3
-------
General Integration Accuracy     IntAcc      ... 4.338
Radial Grid Type                 RadialGrid  ... OptM3 with GC (2021)
Angular Grid (max. ang.)         AngularGrid ... 3 (Lebedev-194)
Angular grid pruning method      GridPruning ... 4 (adaptive)
Weight generation scheme         WeightScheme... Becke
Basis function cutoff            BFCut       ... 1.0000e-12
Integration weight cutoff        WCut        ... 1.0000e-14
Angular grids for H and He will be reduced by one unit
Partially contracted basis set               ... on
Rotationally invariant grid construction     ... off

Total number of grid points                  ...    46491
Total number of batches                      ...      736
Average number of points per batch           ...       63
Average number of grid points per atom       ...     2735

Time for X-Grid setup             =    0.323 sec



 ... the calculation is a CASSCF calculation -I'm leaving here GOOD LUCK!!!



           ************************************************************
           *        Program running with 10 parallel MPI-processes    *
           *              working on a common directory               *
           ************************************************************
-------------------------------------------------------------------------------
                              ORCA-CASSCF
-------------------------------------------------------------------------------

Setting up the integral package       ... done
Setting up the integral package (RI)  ... done
Building the CAS space                ... done (10 configurations for Mult=4)
Building the CAS space                ... done (30 configurations for Mult=2)

SYSTEM-SPECIFIC SETTINGS:
Number of active electrons          ...    7
Number of active orbitals           ...    5
Total number of electrons           ...   73
Total number of orbitals            ...  406
Total number aux. functions         ... 2195

Determined orbital ranges:
   Internal       0 -   32 (  33 orbitals)
   Active        33 -   37 (   5 orbitals)
   External      38 -  405 ( 368 orbitals)
Number of rotation parameters      ...  14149

CI-STEP:
CI strategy                         ... General CI
Number of multiplicity blocks       ...    2
BLOCK  1 WEIGHT=   0.5000
  Multiplicity                      ...    4
  #(Configurations)                 ...   10
  #(CSFs)                           ...   10
  #(Roots)                          ...   10
    ROOT=0 WEIGHT=    0.050000
    ROOT=1 WEIGHT=    0.050000
    ROOT=2 WEIGHT=    0.050000
    ROOT=3 WEIGHT=    0.050000
    ROOT=4 WEIGHT=    0.050000
    ROOT=5 WEIGHT=    0.050000
    ROOT=6 WEIGHT=    0.050000
    ROOT=7 WEIGHT=    0.050000
    ROOT=8 WEIGHT=    0.050000
    ROOT=9 WEIGHT=    0.050000

BLOCK  2 WEIGHT=   0.5000
  Multiplicity                      ...    2
  #(Configurations)                 ...   30
  #(CSFs)                           ...   40
  #(Roots)                          ...   40
    ROOT=0 WEIGHT=    0.012500
    ROOT=1 WEIGHT=    0.012500
    ROOT=2 WEIGHT=    0.012500
    ROOT=3 WEIGHT=    0.012500
    ROOT=4 WEIGHT=    0.012500
    ROOT=5 WEIGHT=    0.012500
    ROOT=6 WEIGHT=    0.012500
    ROOT=7 WEIGHT=    0.012500
    ROOT=8 WEIGHT=    0.012500
    ROOT=9 WEIGHT=    0.012500
    ROOT=10 WEIGHT=    0.012500
    ROOT=11 WEIGHT=    0.012500
    ROOT=12 WEIGHT=    0.012500
    ROOT=13 WEIGHT=    0.012500
    ROOT=14 WEIGHT=    0.012500
    ROOT=15 WEIGHT=    0.012500
    ROOT=16 WEIGHT=    0.012500
    ROOT=17 WEIGHT=    0.012500
    ROOT=18 WEIGHT=    0.012500
    ROOT=19 WEIGHT=    0.012500
    ROOT=20 WEIGHT=    0.012500
    ROOT=21 WEIGHT=    0.012500
    ROOT=22 WEIGHT=    0.012500
    ROOT=23 WEIGHT=    0.012500
    ROOT=24 WEIGHT=    0.012500
    ROOT=25 WEIGHT=    0.012500
    ROOT=26 WEIGHT=    0.012500
    ROOT=27 WEIGHT=    0.012500
    ROOT=28 WEIGHT=    0.012500
    ROOT=29 WEIGHT=    0.012500
    ROOT=30 WEIGHT=    0.012500
    ROOT=31 WEIGHT=    0.012500
    ROOT=32 WEIGHT=    0.012500
    ROOT=33 WEIGHT=    0.012500
    ROOT=34 WEIGHT=    0.012500
    ROOT=35 WEIGHT=    0.012500
    ROOT=36 WEIGHT=    0.012500
    ROOT=37 WEIGHT=    0.012500
    ROOT=38 WEIGHT=    0.012500
    ROOT=39 WEIGHT=    0.012500

  PrintLevel                        ...    1
  N(GuessMat)                       ...       512
  MaxDim(CI)                        ...        10
  MaxIter(CI)                       ...        64
  Energy Tolerance CI               ...  1.00e-09
  Residual Tolerance CI             ...  1.00e-09
  Shift(CI)                         ...  1.00e-04

INTEGRAL-TRANSFORMATION-STEP:
  Algorithm                         ... RI-MO

ORBITAL-IMPROVEMENT-STEP:
  Algorithm                         ... SuperCI
  Default Parametrization           ... CAYLEY
  Act-Act rotations                 ... depends on algorithm used
  FreezeIE                          ... 95.00% of ||g||
  Until reaching FreezeIE rotations with active orbitals are damped. 

  Approx. Fock at                   ... 0.000000e+00 density convergence
  Level shift                       ... energy gap dependent. Minimum=1.000
  Switch step at gradient           ...  3.00e-02 
  Switch step at iteration          ...        50   
  Switch step to                    ... DIIS    

SCF-SETTINGS:
  Incremental                       ... off
  RIJCOSX approximation             ... on
  UseFinalGrid                      ... on
  RI-JK approximation               ... off
  AO integral handling              ... DIRECT
  Integral Neglect Thresh           ...  1.00e-12
  Primitive cutoff TCut             ...  1.00e-14
  Energy convergence tolerance      ...  1.00e-08
  Orbital gradient convergence      ...  1.00e-05
  Max. number of iterations         ...       100  


PROPERTIES-SETTINGS:
  Spin orbit coupling               ... true
  GTensor                           ... true

FINAL ORBITALS:
  Active   Orbitals                 ... d-orbitals 
  Internal Orbitals                 ... canonical 
  External Orbitals                 ... canonical 

------------------
CAS-SCF ITERATIONS
------------------


MACRO-ITERATION   1: 
   --- Canonicalize Internal Space
   --- Canonicalize External Space
   --- Inactive Energy E0 = -1631.56987056 Eh
CI-ITERATION   0: 
 -1656.514743673   0.000000000000 (    0.00)
 -1656.513451699   0.000000000000
 -1656.503650275   0.000000000000
 -1656.500142563   0.000000000000
 -1656.497990085   0.000000000000
 -1656.492253985   0.000000000000
 -1656.486858832   0.000000000000
 -1656.442336650   0.000000000000
 -1656.412903912   0.000000000000
 -1656.412566413   0.000000000000
   CI-PROBLEM SOLVED
   DENSITIES MADE
CI-ITERATION   0: 
 -1656.448977273   0.000000000000 (    0.00)
 -1656.443696412   0.000000000000
 -1656.439622588   0.000000000000
 -1656.437691915   0.000000000000
 -1656.432694442   0.000000000000
 -1656.432244082   0.000000000000
 -1656.430716158   0.000000000000
 -1656.421906232   0.000000000000
 -1656.421613250   0.000000000000
 -1656.420231243   0.000000000000
 -1656.417582278   0.000000000000
 -1656.417560635   0.000000000000
 -1656.409797923   0.000000000000
 -1656.408182622   0.000000000000
 -1656.403207921   0.000000000000
 -1656.400697603   0.000000000000
 -1656.399476389   0.000000000000
 -1656.398191381   0.000000000000
 -1656.397628753   0.000000000000
 -1656.395545332   0.000000000000
 -1656.392676536   0.000000000000
 -1656.390146257   0.000000000000
 -1656.389599986   0.000000000000
 -1656.385674275   0.000000000000
 -1656.385522271   0.000000000000
 -1656.380977155   0.000000000000
 -1656.374635462   0.000000000000
 -1656.374359204   0.000000000000
 -1656.332528479   0.000000000000
 -1656.329064240   0.000000000000
 -1656.326236117   0.000000000000
 -1656.321503816   0.000000000000
 -1656.321341548   0.000000000000
 -1656.316549009   0.000000000000
 -1656.316320444   0.000000000000
 -1656.242704022   0.000000000000
 -1656.233924248   0.000000000000
 -1656.229385186   0.000000000000
 -1656.204308434   0.000000000000
 -1656.201732318   0.000000000000
   CI-PROBLEM SOLVED
   DENSITIES MADE

                 <<<<<<<<<<<<<<<<<<INITIAL CI STATE CHECK>>>>>>>>>>>>>>>>>>

BLOCK  1 MULT= 4 NROOTS=10 
ROOT   0:  E=   -1656.5147436735 Eh
      0.73335 [     7]: 21121
      0.12511 [     3]: 12112
      0.10985 [     8]: 21211
      0.00949 [     1]: 11212
      0.00906 [     9]: 22111
      0.00758 [     2]: 11221
      0.00506 [     4]: 12121
ROOT   1:  E=   -1656.5134516987 Eh  0.035 eV    283.6 cm**-1
      0.68856 [     4]: 12121
      0.16656 [     6]: 21112
      0.05658 [     2]: 11221
      0.05147 [     5]: 12211
      0.01625 [     0]: 11122
      0.01480 [     9]: 22111
      0.00253 [     8]: 21211
ROOT   2:  E=   -1656.5036502754 Eh  0.302 eV   2434.7 cm**-1
      0.74792 [     6]: 21112
      0.09832 [     9]: 22111
      0.08181 [     4]: 12121
      0.02384 [     0]: 11122
      0.01626 [     5]: 12211
      0.01284 [     1]: 11212
      0.00970 [     8]: 21211
      0.00715 [     2]: 11221
ROOT   3:  E=   -1656.5001425630 Eh  0.397 eV   3204.6 cm**-1
      0.68903 [     3]: 12112
      0.17605 [     8]: 21211
      0.05542 [     1]: 11212
      0.03307 [     2]: 11221
      0.02946 [     7]: 21121
      0.01357 [     9]: 22111
      0.00290 [     4]: 12121
ROOT   4:  E=   -1656.4979900849 Eh  0.456 eV   3677.0 cm**-1
      0.39241 [     9]: 22111
      0.24258 [     0]: 11122
      0.13481 [     4]: 12121
      0.12531 [     5]: 12211
      0.06212 [     6]: 21112
      0.03063 [     8]: 21211
      0.00979 [     2]: 11221
ROOT   5:  E=   -1656.4922539849 Eh  0.612 eV   4935.9 cm**-1
      0.62576 [     2]: 11221
      0.27707 [     8]: 21211
      0.04910 [     4]: 12121
      0.02227 [     7]: 21121
      0.02147 [     9]: 22111
      0.00417 [     3]: 12112
ROOT   6:  E=   -1656.4868588318 Eh  0.759 eV   6120.0 cm**-1
      0.57903 [     1]: 11212
      0.28458 [     5]: 12211
      0.04746 [     3]: 12112
      0.03646 [     0]: 11122
      0.03110 [     9]: 22111
      0.01627 [     4]: 12121
ROOT   7:  E=   -1656.4423366504 Eh  1.970 eV  15891.5 cm**-1
      0.59999 [     0]: 11122
      0.35371 [     9]: 22111
      0.02706 [     8]: 21211
      0.01119 [     5]: 12211
      0.00745 [     6]: 21112
ROOT   8:  E=   -1656.4129039116 Eh  2.771 eV  22351.2 cm**-1
      0.36407 [     8]: 21211
      0.25853 [     2]: 11221
      0.21303 [     7]: 21121
      0.10425 [     3]: 12112
      0.02805 [     9]: 22111
      0.01957 [     4]: 12121
      0.01190 [     1]: 11212
ROOT   9:  E=   -1656.4125664126 Eh  2.780 eV  22425.3 cm**-1
      0.51038 [     5]: 12211
      0.32748 [     1]: 11212
      0.08077 [     0]: 11122
      0.03750 [     9]: 22111
      0.02716 [     3]: 12112
      0.01360 [     6]: 21112

BLOCK  2 MULT= 2 NROOTS=40 
ROOT   0:  E=   -1656.4489772732 Eh
      0.53601 [    24]: 22021
      0.15854 [    26]: 22111
      0.12904 [    19]: 21121
      0.06250 [    17]: 21022
      0.03252 [     3]: 02221
      0.01490 [     5]: 11122
      0.01423 [    20]: 21202
      0.01298 [    21]: 21211
      0.00948 [    12]: 12211
      0.00819 [    16]: 20221
      0.00491 [    14]: 20122
      0.00408 [    18]: 21112
      0.00312 [     6]: 11212
      0.00270 [     4]: 10222
ROOT   1:  E=   -1656.4436964119 Eh  0.144 eV   1159.0 cm**-1
      0.48206 [    23]: 22012
      0.15154 [     8]: 12022
      0.11371 [    18]: 21112
      0.05242 [    25]: 22102
      0.05039 [    13]: 12220
      0.03527 [     9]: 12112
      0.01860 [    21]: 21211
      0.01841 [     5]: 11122
      0.01676 [     2]: 02212
      0.01367 [    14]: 20122
      0.01187 [    19]: 21121
      0.00849 [    15]: 20212
      0.00814 [     7]: 11221
      0.00495 [     4]: 10222
      0.00413 [    20]: 21202
      0.00273 [    29]: 22210
      0.00269 [     6]: 11212
ROOT   2:  E=   -1656.4396225883 Eh  0.255 eV   2053.1 cm**-1
      0.42082 [    19]: 21121
      0.08435 [    21]: 21211
      0.07856 [    16]: 20221
      0.07706 [    24]: 22021
      0.07135 [     8]: 12022
      0.05502 [     9]: 12112
      0.04543 [    27]: 22120
      0.02688 [     1]: 02122
      0.01996 [    23]: 22012
      0.01716 [    25]: 22102
      0.01623 [     7]: 11221
      0.01599 [    14]: 20122
      0.01369 [     4]: 10222
      0.01235 [    11]: 12202
      0.01057 [    29]: 22210
      0.00778 [    26]: 22111
      0.00426 [    15]: 20212
      0.00418 [     5]: 11122
      0.00398 [     6]: 11212
      0.00376 [    22]: 21220
ROOT   3:  E=   -1656.4376919152 Eh  0.307 eV   2476.8 cm**-1
      0.27124 [    18]: 21112
      0.23787 [    17]: 21022
      0.12306 [    26]: 22111
      0.07806 [     5]: 11122
      0.06042 [    22]: 21220
      0.05260 [    10]: 12121
      0.04303 [    15]: 20212
      0.04019 [    23]: 22012
      0.01815 [    14]: 20122
      0.01324 [     6]: 11212
      0.01022 [    21]: 21211
      0.01004 [    28]: 22201
      0.00871 [     4]: 10222
      0.00867 [     8]: 12022
      0.00582 [    16]: 20221
      0.00446 [    27]: 22120
      0.00392 [     7]: 11221
      0.00376 [     3]: 02221
ROOT   4:  E=   -1656.4326944424 Eh  0.443 eV   3573.7 cm**-1
      0.57868 [    10]: 12121
      0.08386 [    18]: 21112
      0.08033 [    12]: 12211
      0.07427 [    17]: 21022
      0.04521 [     7]: 11221
      0.03122 [    26]: 22111
      0.03090 [    20]: 21202
      0.02912 [     6]: 11212
      0.00729 [     0]: 01222
      0.00662 [    15]: 20212
      0.00640 [    23]: 22012
      0.00532 [    14]: 20122
      0.00521 [    28]: 22201
      0.00289 [     9]: 12112
      0.00279 [    21]: 21211
      0.00255 [     3]: 02221
ROOT   5:  E=   -1656.4322440820 Eh  0.455 eV   3672.5 cm**-1
      0.33411 [    19]: 21121
      0.27186 [     9]: 12112
      0.10203 [     7]: 11221
      0.09219 [    29]: 22210
      0.04196 [    21]: 21211
      0.02937 [    27]: 22120
      0.02176 [     6]: 11212
      0.01884 [     1]: 02122
      0.01597 [    11]: 12202
      0.01238 [    25]: 22102
      0.01137 [     8]: 12022
      0.01094 [     2]: 02212
      0.00796 [    10]: 12121
      0.00656 [    14]: 20122
      0.00312 [    23]: 22012
      0.00309 [     4]: 10222
      0.00309 [    26]: 22111
      0.00290 [    22]: 21220
ROOT   6:  E=   -1656.4307161583 Eh  0.497 eV   4007.9 cm**-1
      0.16600 [    21]: 21211
      0.15960 [    19]: 21121
      0.11272 [    27]: 22120
      0.08506 [    14]: 20122
      0.07955 [     9]: 12112
      0.07390 [    15]: 20212
      0.05510 [     1]: 02122
      0.05149 [     8]: 12022
      0.04129 [     7]: 11221
      0.03280 [    25]: 22102
      0.02491 [     5]: 11122
      0.02152 [     4]: 10222
      0.02035 [    18]: 21112
      0.01279 [    26]: 22111
      0.00952 [     2]: 02212
      0.00879 [    22]: 21220
      0.00678 [    17]: 21022
      0.00645 [    16]: 20221
      0.00590 [     6]: 11212
      0.00582 [    24]: 22021
      0.00498 [    23]: 22012
      0.00398 [     0]: 01222
      0.00386 [    11]: 12202
      0.00360 [    10]: 12121
ROOT   7:  E=   -1656.4219062316 Eh  0.737 eV   5941.4 cm**-1
      0.29310 [     8]: 12022
      0.20077 [    27]: 22120
      0.10828 [     9]: 12112
      0.06822 [    23]: 22012
      0.04639 [    11]: 12202
      0.04391 [     5]: 11122
      0.03462 [    14]: 20122
      0.03404 [    13]: 12220
      0.03315 [     1]: 02122
      0.02673 [    21]: 21211
      0.02319 [    19]: 21121
      0.01981 [    29]: 22210
      0.01932 [    18]: 21112
      0.01633 [    22]: 21220
      0.00896 [     6]: 11212
      0.00786 [    15]: 20212
      0.00377 [     7]: 11221
      0.00345 [     2]: 02212
      0.00269 [     0]: 01222
ROOT   8:  E=   -1656.4216132495 Eh  0.745 eV   6005.7 cm**-1
      0.37803 [    18]: 21112
      0.32530 [    10]: 12121
      0.07447 [    17]: 21022
      0.04879 [     6]: 11212
      0.04004 [    26]: 22111
      0.02937 [    28]: 22201
      0.02561 [     7]: 11221
      0.01543 [     3]: 02221
      0.01188 [    23]: 22012
      0.01118 [    15]: 20212
      0.00880 [    12]: 12211
      0.00814 [     5]: 11122
      0.00679 [    14]: 20122
      0.00427 [     9]: 12112
      0.00329 [    21]: 21211
      0.00272 [    16]: 20221
ROOT   9:  E=   -1656.4202312430 Eh  0.782 eV   6309.0 cm**-1
      0.30074 [    18]: 21112
      0.17553 [     5]: 11122
      0.15883 [    10]: 12121
      0.06189 [    20]: 21202
      0.05236 [    17]: 21022
      0.04161 [    15]: 20212
      0.04061 [    23]: 22012
      0.03056 [    12]: 12211
      0.02447 [    16]: 20221
      0.02152 [     4]: 10222
      0.01944 [     8]: 12022
      0.01291 [     7]: 11221
      0.01278 [    26]: 22111
      0.01244 [    28]: 22201
      0.00921 [    22]: 21220
      0.00509 [     0]: 01222
      0.00486 [    25]: 22102
      0.00445 [    14]: 20122
      0.00393 [    24]: 22021
ROOT  10:  E=   -1656.4175822778 Eh  0.854 eV   6890.4 cm**-1
      0.11009 [    18]: 21112
      0.10624 [    16]: 20221
      0.09732 [    10]: 12121
      0.08336 [     7]: 11221
      0.06771 [    21]: 21211
      0.06679 [     6]: 11212
      0.06108 [    26]: 22111
      0.05816 [    27]: 22120
      0.05452 [    25]: 22102
      0.05317 [     3]: 02221
      0.03846 [     9]: 12112
      0.03746 [    12]: 12211
      0.03433 [    20]: 21202
      0.02147 [    22]: 21220
      0.02094 [    23]: 22012
      0.01964 [    13]: 12220
      0.01426 [    19]: 21121
      0.01176 [    11]: 12202
      0.00899 [    14]: 20122
      0.00801 [     2]: 02212
      0.00575 [     5]: 11122
      0.00517 [    29]: 22210
      0.00480 [    24]: 22021
      0.00290 [    17]: 21022
      0.00259 [     0]: 01222
ROOT  11:  E=   -1656.4175606349 Eh  0.855 eV   6895.2 cm**-1
      0.21789 [     7]: 11221
      0.10263 [     9]: 12112
      0.07930 [    26]: 22111
      0.06361 [    18]: 21112
      0.05934 [    20]: 21202
      0.05829 [    19]: 21121
      0.04988 [    22]: 21220
      0.04018 [    27]: 22120
      0.03349 [    25]: 22102
      0.03246 [     3]: 02221
      0.03239 [    13]: 12220
      0.02929 [    16]: 20221
      0.02804 [    21]: 21211
      0.02527 [    15]: 20212
      0.02227 [    12]: 12211
      0.02072 [     6]: 11212
      0.01875 [    11]: 12202
      0.01787 [    24]: 22021
      0.01667 [    10]: 12121
      0.01302 [     2]: 02212
      0.00867 [    14]: 20122
      0.00844 [    29]: 22210
      0.00704 [    17]: 21022
      0.00673 [    23]: 22012
ROOT  12:  E=   -1656.4097979229 Eh  1.066 eV   8598.9 cm**-1
      0.46333 [    26]: 22111
      0.11240 [    22]: 21220
      0.08552 [    12]: 12211
      0.08513 [    10]: 12121
      0.04633 [     5]: 11122
      0.03860 [    21]: 21211
      0.03505 [    18]: 21112
      0.03071 [    28]: 22201
      0.02912 [    20]: 21202
      0.01369 [    24]: 22021
      0.01173 [    16]: 20221
      0.00946 [    27]: 22120
      0.00896 [    19]: 21121
      0.00687 [     7]: 11221
      0.00640 [     3]: 02221
      0.00469 [    23]: 22012
      0.00430 [    15]: 20212
ROOT  13:  E=   -1656.4081826218 Eh  1.110 eV   8953.4 cm**-1
      0.27574 [    21]: 21211
      0.16778 [     9]: 12112
      0.11673 [    13]: 12220
      0.09080 [     7]: 11221
      0.07886 [    27]: 22120
      0.04014 [    15]: 20212
      0.03991 [    23]: 22012
      0.03053 [    18]: 21112
      0.02737 [    29]: 22210
      0.02614 [    25]: 22102
      0.02327 [    26]: 22111
      0.01514 [     8]: 12022
      0.01369 [    11]: 12202
      0.01261 [     6]: 11212
      0.00758 [    10]: 12121
      0.00754 [     1]: 02122
      0.00695 [    22]: 21220
      0.00557 [    19]: 21121
      0.00483 [    14]: 20122
      0.00388 [     5]: 11122
ROOT  14:  E=   -1656.4032079214 Eh  1.245 eV  10045.2 cm**-1
      0.32066 [    25]: 22102
      0.28436 [     7]: 11221
      0.05313 [     4]: 10222
      0.05205 [    21]: 21211
      0.04655 [    14]: 20122
      0.04117 [     1]: 02122
      0.02893 [    15]: 20212
      0.02553 [     9]: 12112
      0.02504 [    20]: 21202
      0.02368 [    23]: 22012
      0.02227 [    10]: 12121
      0.01780 [     2]: 02212
      0.01529 [    27]: 22120
      0.01183 [    29]: 22210
      0.00718 [     5]: 11122
      0.00465 [    13]: 12220
      0.00403 [    26]: 22111
      0.00346 [    17]: 21022
      0.00317 [     0]: 01222
      0.00263 [    19]: 21121
ROOT  15:  E=   -1656.4006976031 Eh  1.314 eV  10596.2 cm**-1
      0.53946 [     5]: 11122
      0.09216 [    12]: 12211
      0.06498 [    26]: 22111
      0.05724 [     6]: 11212
      0.03571 [    10]: 12121
      0.03369 [     3]: 02221
      0.02970 [     8]: 12022
      0.02909 [     4]: 10222
      0.02668 [    16]: 20221
      0.02554 [    28]: 22201
      0.02264 [    18]: 21112
      0.01280 [     0]: 01222
      0.01028 [    22]: 21220
      0.00508 [    21]: 21211
      0.00410 [     9]: 12112
      0.00298 [    19]: 21121
      0.00255 [     7]: 11221
ROOT  16:  E=   -1656.3994763893 Eh  1.347 eV  10864.2 cm**-1
      0.15731 [     4]: 10222
      0.14040 [    14]: 20122
      0.11895 [     1]: 02122
      0.11656 [    15]: 20212
      0.11237 [    13]: 12220
      0.07452 [     7]: 11221
      0.05861 [     5]: 11122
      0.05357 [    25]: 22102
      0.02964 [    27]: 22120
      0.02191 [     8]: 12022
      0.01974 [    21]: 21211
      0.01701 [     2]: 02212
      0.01283 [    18]: 21112
      0.01218 [     0]: 01222
      0.01177 [    17]: 21022
      0.01052 [    19]: 21121
      0.00687 [    23]: 22012
      0.00570 [     9]: 12112
      0.00487 [    10]: 12121
      0.00444 [    20]: 21202
ROOT  17:  E=   -1656.3981913807 Eh  1.382 eV  11146.2 cm**-1
      0.20410 [     0]: 01222
      0.18193 [     6]: 11212
      0.14664 [    22]: 21220
      0.10761 [     3]: 02221
      0.08998 [    10]: 12121
      0.06434 [    28]: 22201
      0.03998 [    24]: 22021
      0.02882 [    20]: 21202
      0.02546 [    26]: 22111
      0.01918 [     1]: 02122
      0.01629 [     5]: 11122
      0.01545 [    12]: 12211
      0.01466 [     9]: 12112
      0.01044 [    27]: 22120
      0.00854 [    19]: 21121
      0.00612 [     7]: 11221
      0.00545 [    18]: 21112
      0.00437 [     4]: 10222
      0.00322 [    25]: 22102
      0.00316 [     8]: 12022
ROOT  18:  E=   -1656.3976287533 Eh  1.397 eV  11269.7 cm**-1
      0.20093 [     1]: 02122
      0.19098 [    15]: 20212
      0.17152 [    14]: 20122
      0.13946 [    13]: 12220
      0.04977 [    21]: 21211
      0.04405 [    19]: 21121
      0.03177 [     7]: 11221
      0.03159 [    29]: 22210
      0.02525 [    27]: 22120
      0.01810 [    23]: 22012
      0.01752 [     9]: 12112
      0.01560 [    18]: 21112
      0.01495 [     0]: 01222
      0.01286 [    17]: 21022
      0.01215 [     8]: 12022
      0.00418 [    26]: 22111
      0.00298 [     2]: 02212
      0.00285 [     5]: 11122
      0.00265 [    10]: 12121
ROOT  19:  E=   -1656.3955453318 Eh  1.454 eV  11727.0 cm**-1
      0.19471 [     6]: 11212
      0.19403 [    12]: 12211
      0.16800 [    16]: 20221
      0.09600 [    18]: 21112
      0.08944 [     5]: 11122
      0.07364 [    26]: 22111
      0.04007 [    20]: 21202
      0.03786 [    10]: 12121
      0.02264 [    19]: 21121
      0.01601 [     9]: 12112
      0.01162 [    17]: 21022
      0.01137 [    15]: 20212
      0.01106 [    23]: 22012
      0.00905 [    28]: 22201
      0.00531 [     3]: 02221
      0.00484 [    21]: 21211
      0.00295 [    25]: 22102
      0.00261 [     7]: 11221
      0.00252 [    24]: 22021
ROOT  20:  E=   -1656.3926765358 Eh  1.532 eV  12356.6 cm**-1
      0.24640 [     3]: 02221
      0.20479 [     6]: 11212
      0.18539 [    26]: 22111
      0.07256 [    22]: 21220
      0.05092 [    17]: 21022
      0.04764 [    12]: 12211
      0.04138 [    18]: 21112
      0.04137 [    28]: 22201
      0.02533 [    24]: 22021
      0.01608 [     9]: 12112
      0.01553 [    21]: 21211
      0.00941 [    16]: 20221
      0.00833 [    20]: 21202
      0.00681 [    10]: 12121
      0.00583 [    27]: 22120
      0.00549 [    23]: 22012
      0.00469 [    15]: 20212
      0.00396 [     5]: 11122
      0.00364 [    14]: 20122
ROOT  21:  E=   -1656.3901462572 Eh  1.601 eV  12911.9 cm**-1
      0.29287 [     9]: 12112
      0.16574 [     7]: 11221
      0.16533 [     2]: 02212
      0.12359 [    19]: 21121
      0.07307 [    21]: 21211
      0.04708 [    11]: 12202
      0.02557 [     8]: 12022
      0.02084 [     6]: 11212
      0.01198 [    10]: 12121
      0.01129 [    29]: 22210
      0.01090 [    27]: 22120
      0.00926 [     5]: 11122
      0.00747 [     4]: 10222
      0.00715 [    25]: 22102
      0.00661 [    26]: 22111
      0.00633 [    23]: 22012
      0.00368 [    15]: 20212
      0.00342 [    18]: 21112
ROOT  22:  E=   -1656.3895999861 Eh  1.616 eV  13031.8 cm**-1
      0.26341 [     6]: 11212
      0.16423 [    10]: 12121
      0.14550 [    20]: 21202
      0.13722 [    18]: 21112
      0.08933 [     3]: 02221
      0.03711 [     0]: 01222
      0.03358 [    28]: 22201
      0.02711 [    24]: 22021
      0.02058 [    17]: 21022
      0.01892 [     9]: 12112
      0.01675 [    26]: 22111
      0.01214 [    25]: 22102
      0.01160 [     7]: 11221
      0.00950 [    12]: 12211
      0.00320 [    19]: 21121
      0.00281 [     1]: 02122
ROOT  23:  E=   -1656.3856742750 Eh  1.723 eV  13893.4 cm**-1
      0.32478 [     9]: 12112
      0.13022 [    19]: 21121
      0.10568 [    13]: 12220
      0.09295 [    15]: 20212
      0.07693 [    21]: 21211
      0.05317 [     1]: 02122
      0.03844 [     2]: 02212
      0.03317 [     7]: 11221
      0.03301 [    18]: 21112
      0.02384 [     6]: 11212
      0.01596 [    23]: 22012
      0.01016 [     4]: 10222
      0.00944 [     5]: 11122
      0.00775 [    14]: 20122
      0.00726 [    26]: 22111
      0.00718 [    24]: 22021
      0.00706 [     8]: 12022
      0.00693 [    16]: 20221
      0.00511 [     0]: 01222
      0.00335 [    10]: 12121
ROOT  24:  E=   -1656.3855222712 Eh  1.727 eV  13926.8 cm**-1
      0.21498 [     5]: 11122
      0.20330 [    12]: 12211
      0.10510 [    16]: 20221
      0.10336 [    20]: 21202
      0.08685 [     0]: 01222
      0.06333 [    17]: 21022
      0.04748 [    10]: 12121
      0.03182 [    19]: 21121
      0.02150 [     6]: 11212
      0.01762 [     8]: 12022
      0.01708 [     4]: 10222
      0.01463 [    24]: 22021
      0.01214 [     3]: 02221
      0.01026 [    22]: 21220
      0.01007 [    26]: 22111
      0.00796 [    25]: 22102
      0.00790 [     1]: 02122
      0.00648 [    28]: 22201
      0.00556 [    18]: 21112
      0.00468 [    14]: 20122
      0.00464 [     7]: 11221
ROOT  25:  E=   -1656.3809771549 Eh  1.850 eV  14924.3 cm**-1
      0.10873 [     9]: 12112
      0.10861 [    19]: 21121
      0.10393 [     7]: 11221
      0.09552 [    25]: 22102
      0.09138 [     1]: 02122
      0.09090 [    11]: 12202
      0.07021 [     2]: 02212
      0.06838 [    29]: 22210
      0.06429 [     4]: 10222
      0.05703 [    21]: 21211
      0.02272 [    27]: 22120
      0.01955 [    15]: 20212
      0.01802 [     8]: 12022
      0.01652 [    13]: 12220
      0.01054 [    24]: 22021
      0.00970 [    16]: 20221
      0.00824 [    10]: 12121
      0.00792 [     6]: 11212
      0.00759 [    20]: 21202
      0.00638 [     0]: 01222
      0.00397 [    26]: 22111
ROOT  26:  E=   -1656.3746354619 Eh  2.023 eV  16316.1 cm**-1
      0.28885 [    12]: 12211
      0.18693 [     6]: 11212
      0.16466 [    20]: 21202
      0.09261 [     3]: 02221
      0.09246 [    22]: 21220
      0.04743 [    16]: 20221
      0.02569 [    10]: 12121
      0.01936 [     5]: 11122
      0.01695 [    18]: 21112
      0.01491 [     9]: 12112
      0.01313 [    25]: 22102
      0.00859 [    26]: 22111
      0.00738 [    27]: 22120
      0.00507 [    19]: 21121
      0.00324 [    24]: 22021
ROOT  27:  E=   -1656.3743592040 Eh  2.030 eV  16376.8 cm**-1
      0.23476 [    21]: 21211
      0.18695 [    11]: 12202
      0.13226 [     7]: 11221
      0.12498 [     2]: 02212
      0.10027 [    13]: 12220
      0.07490 [     9]: 12112
      0.06063 [    15]: 20212
      0.01878 [    26]: 22111
      0.01584 [     1]: 02122
      0.01053 [    10]: 12121
      0.00766 [    25]: 22102
      0.00743 [    18]: 21112
      0.00627 [     6]: 11212
      0.00607 [    14]: 20122
      0.00317 [    19]: 21121
      0.00262 [    23]: 22012
ROOT  28:  E=   -1656.3325284794 Eh  3.169 eV  25557.6 cm**-1
      0.31818 [    26]: 22111
      0.21025 [     5]: 11122
      0.12493 [     6]: 11212
      0.04364 [    16]: 20221
      0.04237 [    22]: 21220
      0.03851 [    12]: 12211
      0.03325 [     0]: 01222
      0.02543 [     4]: 10222
      0.02399 [     8]: 12022
      0.02321 [    21]: 21211
      0.02062 [    19]: 21121
      0.01936 [    20]: 21202
      0.01864 [    24]: 22021
      0.01509 [    10]: 12121
      0.01268 [     3]: 02221
      0.00994 [     9]: 12112
      0.00630 [    18]: 21112
      0.00322 [    27]: 22120
      0.00299 [    28]: 22201
      0.00255 [     1]: 02122
ROOT  29:  E=   -1656.3290642399 Eh  3.263 eV  26317.9 cm**-1
      0.15238 [    21]: 21211
      0.09750 [    15]: 20212
      0.09404 [    29]: 22210
      0.08822 [     4]: 10222
      0.08451 [    13]: 12220
      0.07256 [     8]: 12022
      0.06079 [     5]: 11122
      0.05827 [    23]: 22012
      0.05788 [    11]: 12202
      0.05640 [    19]: 21121
      0.05634 [     9]: 12112
      0.05235 [     7]: 11221
      0.01963 [    27]: 22120
      0.01097 [    26]: 22111
      0.00986 [    24]: 22021
      0.00950 [    16]: 20221
      0.00538 [    14]: 20122
      0.00493 [     6]: 11212
      0.00422 [    10]: 12121
ROOT  30:  E=   -1656.3262361173 Eh  3.340 eV  26938.6 cm**-1
      0.19728 [    28]: 22201
      0.12297 [     3]: 02221
      0.11557 [    17]: 21022
      0.11403 [     0]: 01222
      0.10068 [    12]: 12211
      0.07328 [    20]: 21202
      0.07282 [     5]: 11122
      0.04058 [    24]: 22021
      0.03925 [    16]: 20221
      0.02531 [    26]: 22111
      0.02465 [    22]: 21220
      0.01373 [     4]: 10222
      0.01364 [    10]: 12121
      0.01337 [     8]: 12022
      0.00904 [    14]: 20122
      0.00874 [     1]: 02122
      0.00553 [    25]: 22102
      0.00272 [     6]: 11212
ROOT  31:  E=   -1656.3215038158 Eh  3.469 eV  27977.2 cm**-1
      0.35437 [    12]: 12211
      0.16390 [     6]: 11212
      0.09370 [    10]: 12121
      0.09327 [     5]: 11122
      0.08744 [    16]: 20221
      0.06933 [    18]: 21112
      0.04180 [    22]: 21220
      0.01734 [     0]: 01222
      0.01344 [    26]: 22111
      0.01106 [    19]: 21121
      0.00950 [     9]: 12112
      0.00604 [     7]: 11221
      0.00533 [    24]: 22021
      0.00530 [    20]: 21202
      0.00492 [     3]: 02221
      0.00443 [    28]: 22201
      0.00394 [    27]: 22120
      0.00336 [     8]: 12022
      0.00278 [     4]: 10222
      0.00256 [    21]: 21211
ROOT  32:  E=   -1656.3213415478 Eh  3.473 eV  28012.8 cm**-1
      0.20273 [    21]: 21211
      0.16902 [     2]: 02212
      0.13255 [     7]: 11221
      0.10395 [    19]: 21121
      0.08885 [    11]: 12202
      0.08362 [    14]: 20122
      0.04842 [     9]: 12112
      0.03763 [    13]: 12220
      0.03517 [    29]: 22210
      0.01740 [    26]: 22111
      0.01510 [     4]: 10222
      0.01424 [     1]: 02122
      0.00948 [    10]: 12121
      0.00793 [    25]: 22102
      0.00715 [    23]: 22012
      0.00662 [    17]: 21022
      0.00385 [    16]: 20221
      0.00361 [    27]: 22120
      0.00274 [    15]: 20212
ROOT  33:  E=   -1656.3165490086 Eh  3.604 eV  29064.6 cm**-1
      0.16991 [     7]: 11221
      0.15208 [    11]: 12202
      0.13768 [    21]: 21211
      0.08856 [    19]: 21121
      0.07757 [     2]: 02212
      0.07401 [    29]: 22210
      0.05601 [    27]: 22120
      0.05217 [    14]: 20122
      0.03849 [     1]: 02122
      0.03544 [     4]: 10222
      0.03420 [    25]: 22102
      0.01249 [    10]: 12121
      0.01173 [    13]: 12220
      0.01147 [    26]: 22111
      0.00867 [     9]: 12112
      0.00614 [    24]: 22021
      0.00550 [    16]: 20221
      0.00525 [     8]: 12022
      0.00456 [    22]: 21220
      0.00443 [    17]: 21022
      0.00336 [    23]: 22012
      0.00327 [     0]: 01222
      0.00275 [    20]: 21202
ROOT  34:  E=   -1656.3163204439 Eh  3.610 eV  29114.8 cm**-1
      0.29774 [    12]: 12211
      0.21535 [     6]: 11212
      0.09457 [    22]: 21220
      0.09113 [     5]: 11122
      0.07898 [    26]: 22111
      0.06189 [    18]: 21112
      0.02880 [    16]: 20221
      0.02247 [    10]: 12121
      0.01864 [    28]: 22201
      0.01598 [     9]: 12112
      0.01548 [    17]: 21022
      0.01190 [    19]: 21121
      0.00842 [    20]: 21202
      0.00814 [    27]: 22120
      0.00719 [     0]: 01222
      0.00640 [    24]: 22021
      0.00629 [    21]: 21211
      0.00258 [    23]: 22012
ROOT  35:  E=   -1656.2427040218 Eh  5.613 eV  45271.7 cm**-1
      0.19385 [    14]: 20122
      0.19383 [     1]: 02122
      0.17065 [    25]: 22102
      0.15539 [    27]: 22120
      0.05146 [    11]: 12202
      0.03366 [     2]: 02212
      0.03353 [    21]: 21211
      0.02788 [     7]: 11221
      0.02330 [    19]: 21121
      0.02254 [     9]: 12112
      0.01672 [    29]: 22210
      0.01565 [     0]: 01222
      0.01506 [    17]: 21022
      0.01304 [    20]: 21202
      0.01160 [    22]: 21220
      0.00559 [    13]: 12220
      0.00387 [     4]: 10222
      0.00256 [    26]: 22111
ROOT  36:  E=   -1656.2339242477 Eh  5.852 eV  47198.7 cm**-1
      0.20810 [     4]: 10222
      0.19431 [    29]: 22210
      0.13608 [     2]: 02212
      0.13453 [    11]: 12202
      0.08132 [     8]: 12022
      0.05352 [    23]: 22012
      0.03857 [    13]: 12220
      0.02485 [     7]: 11221
      0.02074 [    14]: 20122
      0.01743 [    19]: 21121
      0.01741 [    15]: 20212
      0.01690 [    21]: 21211
      0.01653 [     9]: 12112
      0.01227 [     1]: 02122
      0.00872 [    27]: 22120
      0.00499 [     5]: 11122
ROOT  37:  E=   -1656.2293851858 Eh  5.975 eV  48194.9 cm**-1
      0.23381 [    28]: 22201
      0.18168 [     0]: 01222
      0.10831 [    17]: 21022
      0.09619 [    22]: 21220
      0.07787 [    24]: 22021
      0.07456 [    16]: 20221
      0.04742 [    26]: 22111
      0.03309 [    20]: 21202
      0.02471 [     5]: 11122
      0.02313 [    12]: 12211
      0.02028 [    18]: 21112
      0.01426 [     6]: 11212
      0.01384 [     1]: 02122
      0.01345 [     3]: 02221
      0.00866 [    10]: 12121
      0.00800 [    14]: 20122
      0.00760 [    27]: 22120
      0.00351 [    21]: 21211
      0.00278 [    25]: 22102
ROOT  38:  E=   -1656.2043084337 Eh  6.658 eV  53698.6 cm**-1
      0.29021 [    29]: 22210
      0.17299 [     4]: 10222
      0.08403 [    13]: 12220
      0.08219 [     2]: 02212
      0.07492 [    15]: 20212
      0.06725 [     7]: 11221
      0.06291 [    11]: 12202
      0.04596 [    21]: 21211
      0.02807 [    23]: 22012
      0.02567 [     8]: 12022
      0.01946 [    14]: 20122
      0.01675 [    27]: 22120
      0.01179 [     5]: 11122
      0.00530 [    10]: 12121
      0.00355 [    26]: 22111
      0.00322 [     9]: 12112
ROOT  39:  E=   -1656.2017323177 Eh  6.728 eV  54264.0 cm**-1
      0.27115 [    28]: 22201
      0.21150 [     0]: 01222
      0.11115 [     3]: 02221
      0.07130 [    20]: 21202
      0.05657 [    12]: 12211
      0.05388 [     6]: 11212
      0.04860 [    16]: 20221
      0.04323 [    22]: 21220
      0.02729 [    24]: 22021
      0.02468 [    17]: 21022
      0.02141 [     5]: 11122
      0.01888 [    26]: 22111
      0.01616 [     1]: 02122
      0.00545 [    25]: 22102
      0.00432 [     9]: 12112
      0.00347 [    10]: 12121
      0.00334 [    27]: 22120
      0.00255 [    18]: 21112

                 <<<<<<<<<<<<<<<<<<INITIAL CI STATE CHECK>>>>>>>>>>>>>>>>>>

   E(CAS)= -1656.424175572 Eh DE=    0.000000e+00
   --- Energy gap subspaces: Ext-Act = 1.519   Act-Int = -0.020
   --- current l-shift: Up(Ext-Act) = 1.00   Dn(Act-Int) = 2.02
   N(occ)=  1.40000 1.40000 1.40000 1.40000 1.40000
   ||g|| =     1.219376e+02 Max(G)=    1.102183e+02 Rot=405,0
   --- Option=FreezeIE: ||g|| =    121.934365307 
                              = 100.00% 
                        Damping (0.029) elements outside Int-Ext
   --- Orbital Update [   SuperCI]
   SUPERCI-ITER   0: DE=    -0.261622074 <r|r>=      0.009156826
   SUPERCI-ITER   1: DE=    -0.000998110 <r|r>=      0.028122780
   SUPERCI-ITER   2: DE=    -0.000086778 <r|r>=      0.002117828
   SUPERCI-ITER   3: DE=    -0.000018511 <r|r>=      0.000451526
   SUPERCI-ITER   4: DE=    -0.000003779 <r|r>=      0.000085085
   SUPERCI-ITER   5: DE=    -0.000000731 <r|r>=      0.000002694
   SUPERCI-ITER   6: DE=    -0.000000137 <r|r>=      0.000000441
   SUPERCI-ITER   7: DE=    -0.000000034 <r|r>=      0.000000559
   SUPERCI-ITER   8: DE=    -0.000000005 <r|r>=      0.000000137
   SUPERCI-ITER   9: DE=    -0.000000001 <r|r>=      0.000000003
   SUPERCI-ITER  10: DE=    -0.000000000 
   <Psi(SX)|Psi(SX)>=      1.000000000 DE(SX)=-0.262730160
   Largest coefficient in the normalized |SX> wavefunction= 0.011248314
   --- Forming Natural Orbitals

MACRO-ITERATION   2: 
   --- Canonicalize Internal Space
   --- Canonicalize External Space
   --- Inactive Energy E0 = -1629.31120396 Eh
CI-ITERATION   0: 
 -1654.511648273   0.000000000000 (    0.00)
 -1654.509145408   0.000000000000
 -1654.500211479   0.000000000000
 -1654.495120077   0.000000000000
 -1654.492995807   0.000000000000
 -1654.486810856   0.000000000000
 -1654.481421892   0.000000000000
 -1654.438791763   0.000000000000
 -1654.409208792   0.000000000000
 -1654.406560091   0.000000000000
   CI-PROBLEM SOLVED
   DENSITIES MADE
CI-ITERATION   0: 
 -1654.445819145   0.000000000000 (    0.00)
 -1654.440932611   0.000000000000
 -1654.436581246   0.000000000000
 -1654.435617329   0.000000000000
 -1654.428324752   0.000000000000
 -1654.428152418   0.000000000000
 -1654.427122122   0.000000000000
 -1654.418358338   0.000000000000
 -1654.417851175   0.000000000000
 -1654.416640981   0.000000000000
 -1654.413440987   0.000000000000
 -1654.412886177   0.000000000000
 -1654.404262583   0.000000000000
 -1654.402762387   0.000000000000
 -1654.398826348   0.000000000000
 -1654.397533522   0.000000000000
 -1654.396047062   0.000000000000
 -1654.393788690   0.000000000000
 -1654.393103522   0.000000000000
 -1654.391134567   0.000000000000
 -1654.387202151   0.000000000000
 -1654.385002322   0.000000000000
 -1654.384925599   0.000000000000
 -1654.381351269   0.000000000000
 -1654.381137587   0.000000000000
 -1654.376151760   0.000000000000
 -1654.369406654   0.000000000000
 -1654.369085755   0.000000000000
 -1654.328811538   0.000000000000
 -1654.325372756   0.000000000000
 -1654.321399254   0.000000000000
 -1654.316767311   0.000000000000
 -1654.316278801   0.000000000000
 -1654.311906163   0.000000000000
 -1654.311642235   0.000000000000
 -1654.238671967   0.000000000000
 -1654.229189432   0.000000000000
 -1654.225316327   0.000000000000
 -1654.199620866   0.000000000000
 -1654.197252427   0.000000000000
   CI-PROBLEM SOLVED
   DENSITIES MADE
   E(CAS)= -1654.419791699 Eh DE=    2.004384e+00
   --- Energy gap subspaces: Ext-Act = 0.612   Act-Int = -0.172
   --- current l-shift: Up(Ext-Act) = 0.89   Dn(Act-Int) = 1.67
   N(occ)=  1.40000 1.40000 1.40000 1.40000 1.40000
   ||g|| =     2.075859e+02 Max(G)=   -1.875025e+02 Rot=405,0
   --- Option=FreezeIE: ||g|| =    207.583553781 
                              = 100.00% 
                        Damping (0.029) elements outside Int-Ext
   --- Orbital Update [   SuperCI]
   SUPERCI-ITER   0: DE=    -0.753667588 <r|r>=      0.009209672
   SUPERCI-ITER   1: DE=    -0.002708280 <r|r>=      0.263199309
   SUPERCI-ITER   2: DE=    -0.000150996 <r|r>=      0.000000466
   SUPERCI-ITER   3: DE=    -0.000000182 <r|r>=      0.000000001
   <Psi(SX)|Psi(SX)>=      1.000000000 DE(SX)=-0.756527047
   Largest coefficient in the normalized |SX> wavefunction= 0.013920228
   --- Forming Natural Orbitals

MACRO-ITERATION   3: 
   --- Canonicalize Internal Space
   --- Canonicalize External Space
   --- Inactive Energy E0 = -1632.51574993 Eh
CI-ITERATION   0: 
 -1657.281352760   0.000000000000 (    0.00)
 -1657.280974009   0.000000000000
 -1657.270482195   0.000000000000
 -1657.268064146   0.000000000000
 -1657.265795385   0.000000000000
 -1657.260546082   0.000000000000
 -1657.255175573   0.000000000000
 -1657.209252222   0.000000000000
 -1657.181517739   0.000000000000
 -1657.180464752   0.000000000000
   CI-PROBLEM SOLVED
   DENSITIES MADE
CI-ITERATION   0: 
 -1657.215629106   0.000000000000 (    0.00)
 -1657.210113038   0.000000000000
 -1657.206337172   0.000000000000
 -1657.203670635   0.000000000000
 -1657.200450517   0.000000000000
 -1657.199796386   0.000000000000
 -1657.197715245   0.000000000000
 -1657.189249011   0.000000000000
 -1657.188630104   0.000000000000
 -1657.187003122   0.000000000000
 -1657.185612910   0.000000000000
 -1657.185274166   0.000000000000
 -1657.178144377   0.000000000000
 -1657.176528621   0.000000000000
 -1657.171207870   0.000000000000
 -1657.168106494   0.000000000000
 -1657.166694117   0.000000000000
 -1657.166303637   0.000000000000
 -1657.164448421   0.000000000000
 -1657.163063278   0.000000000000
 -1657.161065831   0.000000000000
 -1657.158367779   0.000000000000
 -1657.157577383   0.000000000000
 -1657.153500334   0.000000000000
 -1657.152990271   0.000000000000
 -1657.149054288   0.000000000000
 -1657.143350650   0.000000000000
 -1657.143110308   0.000000000000
 -1657.100035553   0.000000000000
 -1657.096652330   0.000000000000
 -1657.094547723   0.000000000000
 -1657.089859171   0.000000000000
 -1657.089509119   0.000000000000
 -1657.084804946   0.000000000000
 -1657.084621789   0.000000000000
 -1657.010353379   0.000000000000
 -1657.002234823   0.000000000000
 -1656.997333256   0.000000000000
 -1656.972975382   0.000000000000
 -1656.970350468   0.000000000000
   CI-PROBLEM SOLVED
   DENSITIES MADE
   E(CAS)= -1657.191884656 Eh DE=   -2.772093e+00
   --- Energy gap subspaces: Ext-Act = 0.560   Act-Int = -0.083
   --- current l-shift: Up(Ext-Act) = 0.77   Dn(Act-Int) = 1.42
   N(occ)=  1.40000 1.40000 1.40000 1.40000 1.40000
   ||g|| =     6.188149e+01 Max(G)=   -5.603080e+01 Rot=405,0
   --- Option=FreezeIE: ||g|| =     61.875620393 
                              = 99.99% 
                        Damping (0.029) elements outside Int-Ext
   --- Orbital Update [   SuperCI]
   SUPERCI-ITER   0: DE=    -0.071156633 <r|r>=      0.000021476
   SUPERCI-ITER   1: DE=    -0.000012412 <r|r>=      0.000924599
   Warning: Orthogonalization failed (-5e-16)! Terminating Iterations.
   Warning: Super-CI convergence failure - keeping first order |SX> wavefunction
   <Psi(SX)|Psi(SX)>=      1.000000000 DE(SX)=-0.071169045
   Largest coefficient in the normalized |SX> wavefunction= 0.008760584
   --- Forming Natural Orbitals

MACRO-ITERATION   4: 
   --- Canonicalize Internal Space
   --- Canonicalize External Space
   --- Inactive Energy E0 = -1632.88617876 Eh
CI-ITERATION   0: 
 -1657.546860115   0.000000000000 (    0.00)
 -1657.546685608   0.000000000000
 -1657.536132288   0.000000000000
 -1657.533845617   0.000000000000
 -1657.531583347   0.000000000000
 -1657.526646363   0.000000000000
 -1657.520987344   0.000000000000
 -1657.474764636   0.000000000000
 -1657.447140524   0.000000000000
 -1657.445353871   0.000000000000
   CI-PROBLEM SOLVED
   DENSITIES MADE
CI-ITERATION   0: 
 -1657.481149891   0.000000000000 (    0.00)
 -1657.475306001   0.000000000000
 -1657.471673504   0.000000000000
 -1657.468785112   0.000000000000
 -1657.466240615   0.000000000000
 -1657.465368659   0.000000000000
 -1657.463031145   0.000000000000
 -1657.455034667   0.000000000000
 -1657.454053747   0.000000000000
 -1657.452627339   0.000000000000
 -1657.451051814   0.000000000000
 -1657.450611195   0.000000000000
 -1657.444146890   0.000000000000
 -1657.442605579   0.000000000000
 -1657.436927724   0.000000000000
 -1657.433920911   0.000000000000
 -1657.432154235   0.000000000000
 -1657.431879255   0.000000000000
 -1657.429709163   0.000000000000
 -1657.428332833   0.000000000000
 -1657.426641866   0.000000000000
 -1657.423959876   0.000000000000
 -1657.423100550   0.000000000000
 -1657.418856915   0.000000000000
 -1657.418308738   0.000000000000
 -1657.414357903   0.000000000000
 -1657.408464211   0.000000000000
 -1657.408250133   0.000000000000
 -1657.365136280   0.000000000000
 -1657.361607757   0.000000000000
 -1657.359911855   0.000000000000
 -1657.355219741   0.000000000000
 -1657.354688781   0.000000000000
 -1657.349807541   0.000000000000
 -1657.349622551   0.000000000000
 -1657.275718726   0.000000000000
 -1657.267328978   0.000000000000
 -1657.262258571   0.000000000000
 -1657.237358515   0.000000000000
 -1657.234688917   0.000000000000
   CI-PROBLEM SOLVED
   DENSITIES MADE
   E(CAS)= -1657.457373719 Eh DE=   -2.654891e-01
   --- Energy gap subspaces: Ext-Act = 0.561   Act-Int = -0.039
   --- current l-shift: Up(Ext-Act) = 0.44   Dn(Act-Int) = 1.04
   N(occ)=  1.40000 1.40000 1.40000 1.40000 1.40000
   ||g|| =     1.836465e+01 Max(G)=   -1.663337e+01 Rot=405,0
   --- Option=FreezeIE: ||g|| =     18.346135232 
                              = 99.90% 
                        Damping (0.029) elements outside Int-Ext
   --- Orbital Update [   SuperCI]
   SUPERCI-ITER   0: DE=    -0.006977142 <r|r>=      0.000001483
   SUPERCI-ITER   1: DE=    -0.000001237 <r|r>=      0.000000340
   SUPERCI-ITER   2: DE=    -0.000000010 <r|r>=      0.000000860
   Warning: Orthogonalization failed (-6e-16)! Terminating Iterations.
   <Psi(SX)|Psi(SX)>=      1.000000000 DE(SX)=-0.006978388
   Largest coefficient in the normalized |SX> wavefunction= 0.005396921
   --- Forming Natural Orbitals

MACRO-ITERATION   5: 
   --- Canonicalize Internal Space
   --- Canonicalize External Space
   --- Inactive Energy E0 = -1632.90843041 Eh
CI-ITERATION   0: 
 -1657.575702614   0.000000000000 (    0.00)
 -1657.575280256   0.000000000000
 -1657.565103133   0.000000000000
 -1657.562485282   0.000000000000
 -1657.560330203   0.000000000000
 -1657.555503488   0.000000000000
 -1657.549753148   0.000000000000
 -1657.503537302   0.000000000000
 -1657.475448193   0.000000000000
 -1657.473870685   0.000000000000
   CI-PROBLEM SOLVED
   DENSITIES MADE
CI-ITERATION   0: 
 -1657.509585053   0.000000000000 (    0.00)
 -1657.503826782   0.000000000000
 -1657.500261865   0.000000000000
 -1657.497552422   0.000000000000
 -1657.494692485   0.000000000000
 -1657.493863008   0.000000000000
 -1657.491680702   0.000000000000
 -1657.483528996   0.000000000000
 -1657.482592720   0.000000000000
 -1657.481472750   0.000000000000
 -1657.479461097   0.000000000000
 -1657.479095378   0.000000000000
 -1657.472562554   0.000000000000
 -1657.471148574   0.000000000000
 -1657.465418047   0.000000000000
 -1657.462514107   0.000000000000
 -1657.460906085   0.000000000000
 -1657.460442246   0.000000000000
 -1657.458557428   0.000000000000
 -1657.457019779   0.000000000000
 -1657.454984938   0.000000000000
 -1657.452462922   0.000000000000
 -1657.451699520   0.000000000000
 -1657.447302041   0.000000000000
 -1657.446924611   0.000000000000
[...]
 3 106   46309.7    215.9   0.00000   0.00001   0.00000   0.00000000000048   0.00308   0.98691   0.01000
 3 107   46309.7    215.9   0.00000   0.00000   0.00000   0.00000000000021   0.14700   0.83075   0.02225
 3 108   46637.1    214.4   0.00000   0.00000   0.00000   0.00000000000003   0.61228   0.09765   0.29006
 3 109   46637.1    214.4   0.00000   0.00000   0.00000   0.00000000000004   0.43297   0.45817   0.10886
 3 110   65558.0    152.5   0.00000   0.00000   0.00000   0.00000000000002   0.08332   0.78225   0.13443
 3 111   65558.0    152.5   0.00000   0.00000   0.00000   0.00000000000010   0.01317   0.95897   0.02786
 3 112   66906.4    149.5   0.00000   0.00000   0.00000   0.00000000000016   0.00296   0.93476   0.06228
 3 113   66906.4    149.5   0.00000   0.00000   0.00000   0.00000000000005   0.01663   0.80234   0.18103
 3 114   67664.4    147.8   0.00000   0.00000   0.00000   0.00000000000015   0.01642   0.70578   0.27780
 3 115   67664.4    147.8   0.00000   0.00000   0.00000   0.00000000000002   0.04590   0.24139   0.71272
 3 116   73134.4    136.7   0.00000   0.00000   0.00000   0.00000000000003   0.19530   0.01078   0.79392
 3 117   73134.4    136.7   0.00000   0.00000   0.00000   0.00000000000003   0.15780   0.01283   0.82938
 3 118   73656.5    135.8   0.00000   0.00000   0.00000   0.00000000000012   0.21855   0.71683   0.06462
 3 119   73656.5    135.8   0.00000   0.00007   0.00000   0.00000000000325   0.00034   0.99786   0.00181

Done

                 =============================
                 AB INITIO LIGAND FIELD THEORY
                       d7 configuration
                          2 CI blocks
                         MOs 33 to 37
                 =============================

Metal/Atom center is atom 0
orbital phases =   1.0   1.0   1.0   1.0   1.0 
Metal/Atom d-orbital parts of active orbitals
Shell 15
             33        34        35        36        37
dz2     :  0.610264  0.000011 -0.000055 -0.001579  0.000800
dxz     : -0.004736  0.616751 -0.000429 -0.000492 -0.000220
dyz     :  0.000670 -0.000071  0.615487  0.000074 -0.000251
dx2y2   :  0.018599  0.007889 -0.001363  0.601151 -0.000505
dxy     : -0.008668 -0.004757  0.000158  0.015715  0.613064
Shell 16
             33        34        35        36        37
dz2     :  0.408631  0.000450 -0.000075  0.000114  0.000264
dxz     : -0.002876  0.410077  0.000403 -0.000409 -0.000031
dyz     :  0.000370  0.000655  0.412731  0.000222  0.000314
dx2y2   :  0.013666  0.005072 -0.000809  0.400856 -0.001328
dxy     : -0.006218 -0.003058  0.000655  0.009750  0.407788
Shell 17
             33        34        35        36        37
dz2     :  0.212934 -0.001080  0.000429  0.003572 -0.003463
dxz     : -0.002141  0.216243  0.000433  0.002678  0.001536
dyz     :  0.000818  0.000526  0.217442 -0.001057 -0.000234
dx2y2   :  0.010339  0.006062 -0.001287  0.206680  0.005397
dxy     : -0.005922 -0.000002 -0.000388  0.009839  0.217188
Shell 20
             33        34        35        36        37
dz2     : -0.003906 -0.006967  0.001639  0.024579 -0.011067
dxz     : -0.005090  0.006752 -0.001087  0.009413  0.000698
dyz     :  0.001735 -0.000698  0.011382 -0.003482  0.001138
dx2y2   :  0.023786  0.008987 -0.003244 -0.026880  0.019763
dxy     : -0.008894  0.000878 -0.001407  0.018623  0.007600

Adjusting phases of one-electron integrals               ... done
Adjusting phases of two-electron integrals               ... done


-----------------------------------------------------------------
Computing F0s from 2-electron integrals                  ... done 
-----------------------------------------------------------------
F0   =  0.890238256 a.u. =    24.225 eV =  195384.7 cm**-1
-----------------------------------------------------------------

Preparing for fit                                        ... done
Making fit matrices                                      ... done
Calculating ab initio Hamiltonian matrices               ... 
Calculating fit matrices                                 ... done
Fitting                                                  ... done

------------------------------
AILFT MATRIX ELEMENTS (CASSCF)
--------------------------------

Ligand field one-electron matrix VLFT (a.u.) : 
Orbital          dz2        dxz        dyz        dx2-y2     dxy
  dz2         -6.235063   0.000510  -0.000614  -0.013874   0.007253 
  dxz          0.000510  -6.228283  -0.003351  -0.004770  -0.000951 
  dyz         -0.000614  -0.003351  -6.243189   0.001055  -0.001798 
  dx2-y2      -0.013874  -0.004770   0.001055  -6.219628  -0.006126 
  dxy          0.007253  -0.000951  -0.001798  -0.006126  -6.229396 

-------------------------------------------------
Slater-Condon Parameters (electronic repulsion) : 
-------------------------------------------------
F0dd(from 2el Ints)     =  0.890238256 a.u. =    24.225 eV =  195384.7 cm**-1 (fixed)
F2dd                    =  0.402916377 a.u. =    10.964 eV =   88429.9 cm**-1
F4dd                    =  0.255616711 a.u. =     6.956 eV =   56101.4 cm**-1
-------------------
Racah Parameters : 
-------------------
A(F0dd from 2el Ints)   =  0.861836399 a.u. =    23.452 eV =  189151.2 cm**-1
B                       =  0.005324635 a.u. =     0.145 eV =    1168.6 cm**-1
C                       =  0.020287041 a.u. =     0.552 eV =    4452.5 cm**-1
C/B                     =  3.810
-------------------------------------------------------------------------------

-----------------------------------------
The ligand field one electron eigenfunctions:
-----------------------------------------
Orbital    Energy (eV)  Energy(cm-1)      dz2        dxz        dyz        dx2-y2     dxy
    1          0.000        0.0        -0.489976   0.131053   0.793535  -0.222080   0.252452 
    2          0.003       21.7         0.706103   0.203393   0.545121   0.389416  -0.106051 
    3          0.294     2372.6        -0.063567   0.403079  -0.228938   0.434758   0.769454 
    4          0.473     3818.2         0.161616  -0.864326   0.128335   0.100604   0.447470 
    5          1.015     8183.3         0.480813   0.178672  -0.065293  -0.774532   0.364325 
Ligand field orbitals were stored in rho.casscf.lft.gbw

Calculating ligand field Hamiltonian matrices          ... done
Diagonalizing and fitting the ligand field Hamiltonian ... done
Calculating statistical parameters                     ... done

Reference energy AI-LFT =    -25.476937340 au
Reference energy AI     =    -25.476071519 au

------------------------------------------------
COMPARISON OF AB INITIO AND LIGAND FIELD RESULTS
------------------------------------------------

Block   1
---------
   AI-Root   0: E(AI)=    0.000 eV -> LF-Root   0:     0.000 eV    S= 0.956 Delta=    0.000 eV
   AI-Root   1: E(AI)=    0.002 eV -> LF-Root   1:     0.001 eV    S= 0.956 Delta=    0.001 eV
   AI-Root   2: E(AI)=    0.216 eV -> LF-Root   2:     0.197 eV    S= 0.999 Delta=    0.019 eV
   AI-Root   3: E(AI)=    0.348 eV -> LF-Root   3:     0.329 eV    S= 0.915 Delta=    0.018 eV
   AI-Root   4: E(AI)=    0.352 eV -> LF-Root   4:     0.353 eV    S= 0.916 Delta=   -0.001 eV
   AI-Root   5: E(AI)=    0.554 eV -> LF-Root   5:     0.649 eV    S= 0.989 Delta=   -0.095 eV
   AI-Root   6: E(AI)=    0.556 eV -> LF-Root   6:     0.651 eV    S= 0.989 Delta=   -0.095 eV
   AI-Root   7: E(AI)=    2.089 eV -> LF-Root   7:     2.017 eV    S= 0.999 Delta=    0.072 eV
   AI-Root   8: E(AI)=    2.737 eV -> LF-Root   8:     2.819 eV    S= 0.998 Delta=   -0.081 eV
   AI-Root   9: E(AI)=    2.912 eV -> LF-Root   9:     2.982 eV    S= 0.998 Delta=   -0.070 eV
   (Dropping RMS error for the reference energy)
   RMS error for this block =     0.063 eV =     506.6 cm**-1 

Block   2
---------
   AI-Root   0: E(AI)=    2.082 eV -> LF-Root   0:     2.113 eV    S= 0.943 Delta=   -0.032 eV
   AI-Root   1: E(AI)=    2.082 eV -> LF-Root   1:     2.115 eV    S= 0.943 Delta=   -0.032 eV
   AI-Root   2: E(AI)=    2.274 eV -> LF-Root   2:     2.307 eV    S= 0.978 Delta=   -0.033 eV
   AI-Root   3: E(AI)=    2.304 eV -> LF-Root   3:     2.349 eV    S= 0.938 Delta=   -0.045 eV
   AI-Root   4: E(AI)=    2.365 eV -> LF-Root   4:     2.456 eV    S= 0.971 Delta=   -0.090 eV
   AI-Root   5: E(AI)=    2.384 eV -> LF-Root   5:     2.460 eV    S= 0.666 Delta=   -0.076 eV
   AI-Root   6: E(AI)=    2.472 eV -> LF-Root   6:     2.465 eV    S= 0.710 Delta=    0.008 eV
   AI-Root   7: E(AI)=    2.737 eV -> LF-Root   7:     2.798 eV    S= 0.862 Delta=   -0.061 eV
   AI-Root   8: E(AI)=    2.748 eV -> LF-Root   8:     2.778 eV    S= 0.805 Delta=   -0.030 eV
   AI-Root   9: E(AI)=    2.763 eV -> LF-Root   9:     2.858 eV    S= 0.992 Delta=   -0.095 eV
   AI-Root  10: E(AI)=    2.778 eV -> LF-Root  10:     2.760 eV    S= 0.902 Delta=    0.018 eV
   AI-Root  11: E(AI)=    2.778 eV -> LF-Root  11:     2.759 eV    S= 0.837 Delta=    0.020 eV
   AI-Root  12: E(AI)=    3.146 eV -> LF-Root  12:     3.132 eV    S= 0.993 Delta=    0.014 eV
   AI-Root  13: E(AI)=    3.158 eV -> LF-Root  13:     3.147 eV    S= 0.991 Delta=    0.011 eV
   AI-Root  14: E(AI)=    3.198 eV -> LF-Root  14:     3.179 eV    S= 0.968 Delta=    0.018 eV
   AI-Root  15: E(AI)=    3.227 eV -> LF-Root  15:     3.195 eV    S= 0.994 Delta=    0.032 eV
   AI-Root  16: E(AI)=    3.272 eV -> LF-Root  16:     3.255 eV    S= 0.968 Delta=    0.018 eV
   AI-Root  17: E(AI)=    3.351 eV -> LF-Root  17:     3.355 eV    S= 0.987 Delta=   -0.004 eV
   AI-Root  18: E(AI)=    3.386 eV -> LF-Root  18:     3.427 eV    S= 0.972 Delta=   -0.041 eV
   AI-Root  19: E(AI)=    3.401 eV -> LF-Root  19:     3.439 eV    S= 0.964 Delta=   -0.038 eV
   AI-Root  20: E(AI)=    3.475 eV -> LF-Root  20:     3.492 eV    S= 0.975 Delta=   -0.017 eV
   AI-Root  21: E(AI)=    3.480 eV -> LF-Root  21:     3.504 eV    S= 0.968 Delta=   -0.023 eV
   AI-Root  22: E(AI)=    3.557 eV -> LF-Root  22:     3.555 eV    S= 0.983 Delta=    0.002 eV
   AI-Root  23: E(AI)=    3.661 eV -> LF-Root  23:     3.711 eV    S= 0.995 Delta=   -0.049 eV
   AI-Root  24: E(AI)=    3.716 eV -> LF-Root  24:     3.773 eV    S= 0.998 Delta=   -0.057 eV
   AI-Root  25: E(AI)=    3.785 eV -> LF-Root  25:     3.753 eV    S= 0.999 Delta=    0.032 eV
   AI-Root  26: E(AI)=    3.911 eV -> LF-Root  26:     3.989 eV    S= 0.722 Delta=   -0.079 eV
   AI-Root  27: E(AI)=    3.911 eV -> LF-Root  27:     3.989 eV    S= 0.722 Delta=   -0.079 eV
   AI-Root  28: E(AI)=    5.311 eV -> LF-Root  28:     5.349 eV    S= 1.000 Delta=   -0.038 eV
   AI-Root  29: E(AI)=    5.386 eV -> LF-Root  29:     5.427 eV    S= 0.999 Delta=   -0.041 eV
   AI-Root  30: E(AI)=    5.459 eV -> LF-Root  30:     5.509 eV    S= 0.999 Delta=   -0.050 eV
   AI-Root  31: E(AI)=    5.608 eV -> LF-Root  31:     5.632 eV    S= 1.000 Delta=   -0.025 eV
   AI-Root  32: E(AI)=    5.619 eV -> LF-Root  32:     5.644 eV    S= 0.999 Delta=   -0.026 eV
   AI-Root  33: E(AI)=    5.722 eV -> LF-Root  33:     5.760 eV    S= 0.980 Delta=   -0.038 eV
   AI-Root  34: E(AI)=    5.722 eV -> LF-Root  34:     5.760 eV    S= 0.981 Delta=   -0.038 eV
   AI-Root  35: E(AI)=    8.088 eV -> LF-Root  35:     8.014 eV    S= 1.000 Delta=    0.074 eV
   AI-Root  36: E(AI)=    8.263 eV -> LF-Root  36:     8.307 eV    S= 0.994 Delta=   -0.043 eV
   AI-Root  37: E(AI)=    8.340 eV -> LF-Root  37:     8.386 eV    S= 0.994 Delta=   -0.046 eV
   AI-Root  38: E(AI)=    9.058 eV -> LF-Root  38:     9.042 eV    S= 0.968 Delta=    0.016 eV
   AI-Root  39: E(AI)=    9.062 eV -> LF-Root  39:     9.044 eV    S= 0.968 Delta=    0.017 eV
   RMS error for this block =     0.044 eV =     356.9 cm**-1 

Total RMS error g=     0.048 eV =     388.8 cm**-1
Note: Dropped RMS error for the reference energy.

Confidence intervals (95%) computed from the square root of the
diagonal elements of the covariance matrix:
H(dz2   ,dz2   )=  0.000265095 a.u. =     0.007 eV =      58.2 cm**-1
H(dxz   ,dz2   )=  0.000224274 a.u. =     0.006 eV =      49.2 cm**-1
H(dxz   ,dxz   )=  0.000265095 a.u. =     0.007 eV =      58.2 cm**-1
H(dyz   ,dz2   )=  0.000224274 a.u. =     0.006 eV =      49.2 cm**-1
H(dyz   ,dxz   )=  0.000224274 a.u. =     0.006 eV =      49.2 cm**-1
H(dyz   ,dyz   )=  0.000265095 a.u. =     0.007 eV =      58.2 cm**-1
H(dx2-y2,dz2   )=  0.000224274 a.u. =     0.006 eV =      49.2 cm**-1
H(dx2-y2,dxz   )=  0.000224274 a.u. =     0.006 eV =      49.2 cm**-1
H(dx2-y2,dyz   )=  0.000224274 a.u. =     0.006 eV =      49.2 cm**-1
H(dx2-y2,dx2-y2)=  0.000265095 a.u. =     0.007 eV =      58.2 cm**-1
H(dxy   ,dz2   )=  0.000224274 a.u. =     0.006 eV =      49.2 cm**-1
H(dxy   ,dxz   )=  0.000224274 a.u. =     0.006 eV =      49.2 cm**-1
H(dxy   ,dyz   )=  0.000224274 a.u. =     0.006 eV =      49.2 cm**-1
H(dxy   ,dx2-y2)=  0.000224274 a.u. =     0.006 eV =      49.2 cm**-1
H(dxy   ,dxy   )=  0.000265095 a.u. =     0.007 eV =      58.2 cm**-1
F2dd            =  0.000952005 a.u. =     0.026 eV =     208.9 cm**-1
F4dd            =  0.001380746 a.u. =     0.038 eV =     303.0 cm**-1
Pearson's correlation coefficient =    1.000 (should be close to 1)

----------------------------------------------
SPIN ORBIT COUPLING (based on CASSCF orbitals)
----------------------------------------------

AI-SOC-X integrals (cm-1)
                  0          1          2          3          4    
      0      -0.000000   7.388587 902.909530  -0.723905  -4.393228
      1      -7.388587   0.000000   6.723112  13.622584 515.166280
      2     -902.909530  -6.723112   0.000000 -502.488146  -1.097414
      3       0.723905 -13.622584 502.488146  -0.000000  -0.406603
      4       4.393228 -515.166280   1.097414   0.406603  -0.000000
AI-SOC-Y integrals (cm-1)
                  0          1          2          3          4    
      0       0.000000 -872.642972  -6.837833   4.274622  -0.236244
      1     872.642972   0.000000  -2.865883 -506.088988   0.671387
      2       6.837833   2.865883  -0.000000 -13.452958 -514.855850
      3      -4.274622 506.088988  13.452958  -0.000000  -0.169311
      4       0.236244  -0.671387 514.855850   0.169311   0.000000
AI-SOC-Z integrals (cm-1)
                  0          1          2          3          4    
      0      -0.000000   0.698426   4.243621 -15.634083 -32.303613
      1      -0.698426   0.000000 -518.019853  -8.177625 -13.465738
      2      -4.243621 518.019853   0.000000   0.168843   2.140502
      3      15.634083   8.177625  -0.168843  -0.000000 -1003.752615
      4      32.303613  13.465738  -2.140502 1003.752615   0.000000

Fit to the SOC matrix elements
a = 15.000000
b =     0.947 eV =    7639.5 cm**-1
SOC constant zeta =     0.063 eV =     509.3 cm**-1


LF-SOC-X integrals (cm-1)
                  0          1          2          3          4    
      0       0.000000  -0.000000 882.130185  -0.000000  -0.000000
      1       0.000000   0.000000  -0.000000  -0.000000 509.298099
      2     -882.130185   0.000000   0.000000 -509.298099  -0.000000
      3       0.000000   0.000000 509.298099   0.000000  -0.000000
      4       0.000000 -509.298099   0.000000   0.000000   0.000000
LF-SOC-Y integrals (cm-1)
                  0          1          2          3          4    
      0       0.000000 -882.130185  -0.000000  -0.000000  -0.000000
      1     882.130185   0.000000  -0.000000 -509.298099  -0.000000
      2       0.000000   0.000000   0.000000  -0.000000 -509.298099
      3       0.000000 509.298099   0.000000   0.000000  -0.000000
      4       0.000000   0.000000 509.298099   0.000000   0.000000
LF-SOC-Z integrals (cm-1)
                  0          1          2          3          4    
      0       0.000000  -0.000000  -0.000000  -0.000000  -0.000000
      1       0.000000   0.000000 -509.298099  -0.000000  -0.000000
      2       0.000000 509.298099   0.000000  -0.000000  -0.000000
      3       0.000000   0.000000   0.000000   0.000000 -1018.596199
      4       0.000000   0.000000   0.000000 1018.596199   0.000000

RMS error of nonzero matrix elements =   10.1 cm**-1


-----SOC-CONSTANTS-----
---All Values in cm-1---
ZETA_D = 509.30 
------------------------




---AILFT COMPLETED SUCCESFULLY!---

--------------
CASSCF TIMINGS
--------------

Total time                       ...      334.7 sec
Sum of individual times          ...      331.5 sec ( 99.1%)

Calculation of AO operators
   F(Core) operator              ...      131.7 sec ( 39.4%)
   G(Act) operator               ...      124.8 sec ( 37.3%)
   J(AO) operators               ...        0.0 sec (  0.0%)
Calculation of MO transformed quantities
   J(MO) operators               ...       19.6 sec (  5.8%)
   (pq|rs) integrals             ...        0.0 sec (  0.0%)
   AO->MO one electron integrals ...        0.6 sec (  0.2%)
Configuration interaction steps
   CI-setup phase                ...        0.0 sec (  0.0%)
   CI-solution phase             ...        1.0 sec (  0.3%)
   Generation of densities       ...        0.1 sec (  0.0%)
Orbital improvement steps
   Orbital gradient              ...        0.2 sec (  0.1%)
   O(1) converger                ...        3.3 sec (  1.0%)
Properties                       ...       33.1 sec (  9.9%)
   SOC integral calculation      ...       17.0 sec (  5.1%)
   SSC RMEs (incl. integrals)    ...        0.0 sec (  0.0%)
   SOC RMEs                      ...        0.1 sec (  0.0%)

Maximum memory used throughout the entire CASSCF-calculation: 416.3 MB

-------------------------   --------------------
FINAL SINGLE POINT ENERGY     -1657.547004193361
-------------------------   --------------------


                            ***************************************
                            *     ORCA property calculations      *
                            ***************************************

                                    ---------------------
                                    Active property flags
                                    ---------------------
   (+) Dipole Moment


------------------------------------------------------------------------------
                       ORCA ELECTRIC PROPERTIES CALCULATION
------------------------------------------------------------------------------

Dipole Moment Calculation                       ... on
Quadrupole Moment Calculation                   ... off
Polarizability Calculation                      ... off
GBWName                                         ... rho.gbw
Electron density                                ... rho.scfp
The origin for moment calculation is the CENTER OF MASS  = ( 0.000680, -0.006282  0.003137)

-------------
DIPOLE MOMENT
-------------
                                X             Y             Z
Electronic contribution:      0.00584      -0.02765      -0.03101
Nuclear contribution   :     -0.00614       0.02861       0.03066
                        -----------------------------------------
Total Dipole Moment    :     -0.00030       0.00096      -0.00035
                        -----------------------------------------
Magnitude (a.u.)       :      0.00107
Magnitude (Debye)      :      0.00271



--------------------
Rotational spectrum 
--------------------
 
Rotational constants in cm-1:     0.280598     0.027147     0.026367 
Rotational constants in MHz :  8412.107010   813.839474   790.457551 

 Dipole components along the rotational axes: 
x,y,z [a.u.] :     0.000269     0.000752    -0.000706 
x,y,z [Debye]:     0.000683     0.001912    -0.001795 

 

Timings for individual modules:

Sum of individual times         ...      356.128 sec (=   5.935 min)
GTO integral calculation        ...        4.599 sec (=   0.077 min)   1.3 %
Relativistic integrals          ...        4.194 sec (=   0.070 min)   1.2 %
SCF iterations                  ...        4.606 sec (=   0.077 min)   1.3 %
CASSCF iterations               ...      342.729 sec (=   5.712 min)  96.2 %
                             ****ORCA TERMINATED NORMALLY****
TOTAL RUN TIME: 0 days 0 hours 6 minutes 0 seconds 235 msec
