
                                 *****************
                                 * O   R   C   A *
                                 *****************

                                            #,                                       
                                            ###                                      
                                            ####                                     
                                            #####                                    
                                            ######                                   
                                           ########,                                 
                                     ,,################,,,,,                         
                               ,,#################################,,                 
                          ,,##########################################,,             
                       ,#########################################, ''#####,          
                    ,#############################################,,   '####,        
                  ,##################################################,,,,####,       
                ,###########''''           ''''###############################       
              ,#####''   ,,,,##########,,,,          '''####'''          '####       
            ,##' ,,,,###########################,,,                        '##       
           ' ,,###''''                  '''############,,,                           
         ,,##''                                '''############,,,,        ,,,,,,###''
      ,#''                                            '''#######################'''  
     '                                                          ''''####''''         
             ,#######,   #######,   ,#######,      ##                                
            ,#'     '#,  ##    ##  ,#'     '#,    #''#        ######   ,####,        
            ##       ##  ##   ,#'  ##            #'  '#       #        #'  '#        
            ##       ##  #######   ##           ,######,      #####,   #    #        
            '#,     ,#'  ##    ##  '#,     ,#' ,#      #,         ##   #,  ,#        
             '#######'   ##     ##  '#######'  #'      '#     #####' # '####'        



                  #######################################################
                  #                        -***-                        #
                  #          Department of theory and spectroscopy      #
                  #    Directorship and core code : Frank Neese         #
                  #        Max Planck Institute fuer Kohlenforschung    #
                  #                Kaiser Wilhelm Platz 1               #
                  #                 D-45470 Muelheim/Ruhr               #
                  #                      Germany                        #
                  #                                                     #
                  #                  All rights reserved                #
                  #                        -***-                        #
                  #######################################################


                         Program Version 5.0.4 -  RELEASE  -


 With contributions from (in alphabetic order):
   Daniel Aravena         : Magnetic Suceptibility
   Michael Atanasov       : Ab Initio Ligand Field Theory (pilot matlab implementation)
   Alexander A. Auer      : GIAO ZORA, VPT2 properties, NMR spectrum
   Ute Becker             : Parallelization
   Giovanni Bistoni       : ED, misc. LED, open-shell LED, HFLD
   Martin Brehm           : Molecular dynamics
   Dmytro Bykov           : SCF Hessian
   Vijay G. Chilkuri      : MRCI spin determinant printing, contributions to CSF-ICE
   Dipayan Datta          : RHF DLPNO-CCSD density
   Achintya Kumar Dutta   : EOM-CC, STEOM-CC
   Dmitry Ganyushin       : Spin-Orbit,Spin-Spin,Magnetic field MRCI
   Miquel Garcia          : C-PCM and meta-GGA Hessian, CC/C-PCM, Gaussian charge scheme
   Yang Guo               : DLPNO-NEVPT2, F12-NEVPT2, CIM, IAO-localization
   Andreas Hansen         : Spin unrestricted coupled pair/coupled cluster methods
   Benjamin Helmich-Paris : MC-RPA, TRAH-SCF, COSX integrals
   Lee Huntington         : MR-EOM, pCC
   Robert Izsak           : Overlap fitted RIJCOSX, COSX-SCS-MP3, EOM
   Marcus Kettner         : VPT2
   Christian Kollmar      : KDIIS, OOCD, Brueckner-CCSD(T), CCSD density, CASPT2, CASPT2-K
   Simone Kossmann        : Meta GGA functionals, TD-DFT gradient, OOMP2, MP2 Hessian
   Martin Krupicka        : Initial AUTO-CI
   Lucas Lang             : DCDCAS
   Marvin Lechner         : AUTO-CI (C++ implementation), FIC-MRCC
   Dagmar Lenk            : GEPOL surface, SMD
   Dimitrios Liakos       : Extrapolation schemes; Compound Job, initial MDCI parallelization
   Dimitrios Manganas     : Further ROCIS development; embedding schemes
   Dimitrios Pantazis     : SARC Basis sets
   Anastasios Papadopoulos: AUTO-CI, single reference methods and gradients
   Taras Petrenko         : DFT Hessian,TD-DFT gradient, ASA, ECA, R-Raman, ABS, FL, XAS/XES, NRVS
   Peter Pinski           : DLPNO-MP2, DLPNO-MP2 Gradient
   Christoph Reimann      : Effective Core Potentials
   Marius Retegan         : Local ZFS, SOC
   Christoph Riplinger    : Optimizer, TS searches, QM/MM, DLPNO-CCSD(T), (RO)-DLPNO pert. Triples
   Tobias Risthaus        : Range-separated hybrids, TD-DFT gradient, RPA, STAB
   Michael Roemelt        : Original ROCIS implementation
   Masaaki Saitow         : Open-shell DLPNO-CCSD energy and density
   Barbara Sandhoefer     : DKH picture change effects
   Avijit Sen             : IP-ROCIS
   Kantharuban Sivalingam : CASSCF convergence, NEVPT2, FIC-MRCI
   Bernardo de Souza      : ESD, SOC TD-DFT
   Georgi Stoychev        : AutoAux, RI-MP2 NMR, DLPNO-MP2 response
   Willem Van den Heuvel  : Paramagnetic NMR
   Boris Wezisla          : Elementary symmetry handling
   Frank Wennmohs         : Technical directorship


 We gratefully acknowledge several colleagues who have allowed us to
 interface, adapt or use parts of their codes:
   Stefan Grimme, W. Hujo, H. Kruse, P. Pracht,  : VdW corrections, initial TS optimization,
                  C. Bannwarth, S. Ehlert          DFT functionals, gCP, sTDA/sTD-DF
   Ed Valeev, F. Pavosevic, A. Kumar             : LibInt (2-el integral package), F12 methods
   Garnet Chan, S. Sharma, J. Yang, R. Olivares  : DMRG
   Ulf Ekstrom                                   : XCFun DFT Library
   Mihaly Kallay                                 : mrcc  (arbitrary order and MRCC methods)
   Jiri Pittner, Ondrej Demel                    : Mk-CCSD
   Frank Weinhold                                : gennbo (NPA and NBO analysis)
   Christopher J. Cramer and Donald G. Truhlar   : smd solvation model
   Lars Goerigk                                  : TD-DFT with DH, B97 family of functionals
   V. Asgeirsson, H. Jonsson                     : NEB implementation
   FAccTs GmbH                                   : IRC, NEB, NEB-TS, DLPNO-Multilevel, CI-OPT
                                                   MM, QMMM, 2- and 3-layer-ONIOM, Crystal-QMMM,
                                                   LR-CPCM, SF, NACMEs, symmetry and pop. for TD-DFT,
                                                   nearIR, NL-DFT gradient (VV10), updates on ESD,
                                                   ML-optimized integration grids
   S Lehtola, MJT Oliveira, MAL Marques          : LibXC Library
   Liviu Ungur et al                             : ANISO software


 Your calculation uses the libint2 library for the computation of 2-el integrals
 For citations please refer to: http://libint.valeyev.net

 Your ORCA version has been built with support for libXC version: 5.1.0
 For citations please refer to: https://tddft.org/programs/libxc/

 This ORCA versions uses:
   CBLAS   interface :  Fast vector & matrix operations
   LAPACKE interface :  Fast linear algebra routines
   SCALAPACK package :  Parallel linear algebra routines
   Shared memory     :  Shared parallel matrices
   BLAS/LAPACK       :  OpenBLAS 0.3.15  USE64BITINT DYNAMIC_ARCH NO_AFFINITY Zen SINGLE_THREADED
        Core in use  :  Zen
   Copyright (c) 2011-2014, The OpenBLAS Project




***************************************
The coordinates will be read from file: geo.xyz
***************************************


================================================================================

----- Orbital basis set information -----
Your calculation utilizes the basis: DKH-def2-TZVPP
   Exponents from def2-TZVPP [F. Weigend and R. Ahlrichs, Phys. Chem. Chem. Phys. 7, 3297 (2005)],
   recontracted for DKH2 by D. A. Pantazis.

----- AuxJ basis set information -----
Your calculation utilizes the AutoAux generation procedure.
  G. L. Stoychev, A. A. Auer, F. Neese, J. Chem. Theory Comput. 13, 554 (2017)

----- AuxC basis set information -----
Your calculation utilizes the AutoAux generation procedure.
  G. L. Stoychev, A. A. Auer, F. Neese, J. Chem. Theory Comput. 13, 554 (2017)

----- AuxJK basis set information -----
Your calculation utilizes the AutoAux generation procedure.
  G. L. Stoychev, A. A. Auer, F. Neese, J. Chem. Theory Comput. 13, 554 (2017)

================================================================================
                                        WARNINGS
                       Please study these warnings very carefully!
================================================================================


INFO   : the flag for use of the SHARK integral package has been found!

================================================================================
                                       INPUT FILE
================================================================================
NAME = rho.inp
|  1> !CASSCF  DKH DKH-def2-TZVPP  RIJCOSX NoSFitting VeryTightSCF autoaux moread SlowConv
|  2> %moinp "orb.gbw"
|  3> %pal
|  4> nprocs 10
|  5> end
|  6> %maxcore 4000
|  7> # swap
|  8> %scf
|  9>  Rotate
| 10>   { 44, 42 }
| 11>  end
| 12> end
| 13> #
| 14> %rel
| 15>  picturechange 2
| 16> end
| 17> %casscf
| 18>  nel  7
| 19>  norb 5
| 20>  mult 4,2
| 21>  nroots 10,40
| 22>  maxiter 100
| 23>  ActOrbs dOrbs
| 24>  rel
| 25>   printlevel 3
| 26>   dosoc true
| 27>   gtensor true
| 28>   quad true
| 29>  end
| 30> end
| 31> * xyzfile 4 4 geo.xyz *
| 32> 
| 33>                          ****END OF INPUT****
================================================================================

                       ****************************
                       * Single Point Calculation *
                       ****************************

---------------------------------
CARTESIAN COORDINATES (ANGSTROEM)
---------------------------------
  Co    -0.003673   -0.555597    0.285646
  O      1.827758   -0.410275    0.869882
  H      2.175169   -1.223789    1.306345
  C      2.989675    0.539325    0.616109
  H      3.529220    0.110215   -0.242752
  H      2.519739    1.489855    0.337866
  C      3.856906    0.632914    1.894440
  N      5.148161    1.399691    1.658320
  H      4.158608   -0.365493    2.245125
  H      3.322416    1.147674    2.703181
  H      5.001601    2.386654    1.380111
  H      5.770974    0.962469    0.955003
  H      5.691445    1.429969    2.543724
  O     -1.837263   -0.933929   -0.172987
  H     -2.190441   -1.759379    0.235667
  C     -2.994081   -0.168535   -0.798894
  H     -3.541743    0.269333    0.050374
  H     -2.519591    0.618959   -1.395881
  C     -3.853512   -1.143550   -1.638906
  N     -5.140700   -0.498777   -2.127726
  H     -4.160549   -2.017630   -1.045304
  H     -3.311653   -1.489589   -2.528414
  H     -4.988812    0.309739   -2.757186
  H     -5.769872   -0.190469   -1.364286
  H     -5.679780   -1.194134   -2.680815

----------------------------
CARTESIAN COORDINATES (A.U.)
----------------------------
  NO LB      ZA    FRAG     MASS         X           Y           Z
   0 Co   27.0000    0    58.930   -0.006941   -1.049927    0.539793
   1 O     8.0000    0    15.999    3.453961   -0.775307    1.643838
   2 H     1.0000    0     1.008    4.110474   -2.312625    2.468635
   3 C     6.0000    0    12.011    5.649666    1.019176    1.164277
   4 H     1.0000    0     1.008    6.669258    0.208276   -0.458734
   5 H     1.0000    0     1.008    4.761617    2.815417    0.638475
   6 C     6.0000    0    12.011    7.288496    1.196034    3.579972
   7 N     7.0000    0    14.007    9.728614    2.645033    3.133770
   8 H     1.0000    0     1.008    7.858630   -0.690681    4.242672
   9 H     1.0000    0     1.008    6.278457    2.168789    5.108271
  10 H     1.0000    0     1.008    9.451656    4.510123    2.608031
  11 H     1.0000    0     1.008   10.905560    1.818804    1.804694
  12 H     1.0000    0     1.008   10.755273    2.702250    4.806941
  13 O     8.0000    0    15.999   -3.471925   -1.764870   -0.326897
  14 H     1.0000    0     1.008   -4.139333   -3.324745    0.445346
  15 C     6.0000    0    12.011   -5.657993   -0.318486   -1.509691
  16 H     1.0000    0     1.008   -6.692925    0.508965    0.095192
  17 H     1.0000    0     1.008   -4.761337    1.169663   -2.637832
  18 C     6.0000    0    12.011   -7.282082   -2.160997   -3.097083
  19 N     7.0000    0    14.007   -9.714516   -0.942552   -4.020820
  20 H     1.0000    0     1.008   -7.862298   -3.812769   -1.975338
  21 H     1.0000    0     1.008   -6.258118   -2.814915   -4.778010
  22 H     1.0000    0     1.008   -9.427489    0.585322   -5.210326
  23 H     1.0000    0     1.008  -10.903479   -0.359934   -2.578127
  24 H     1.0000    0     1.008  -10.733228   -2.256586   -5.066007

--------------------------------
INTERNAL COORDINATES (ANGSTROEM)
--------------------------------
 Co     0   0   0     0.000000000000     0.00000000     0.00000000
 O      1   0   0     1.927845480956     0.00000000     0.00000000
 H      2   1   0     0.986407497306   113.98575684     0.00000000
 C      2   1   3     1.521903833656   136.20181322   165.74889451
 H      4   2   1     1.101310738269   105.12658606   269.02635539
 H      4   2   1     1.096250318364   104.83641862    25.55112476
 C      4   2   1     1.547572001777   109.13695470   147.36198967
 N      7   4   2     1.520210367245   112.22151890   171.56673243
 H      7   4   2     1.100372722665   111.22473276    53.11050435
 H      7   4   2     1.097596925401   111.35308274   291.42319842
 H      8   7   4     1.035845300543   113.71101980    62.17719033
 H      8   7   4     1.036201399777   113.77388061   298.31378917
 H      8   7   4     1.039237687224   109.05068050   180.17623801
 O      1   2   3     1.927571662767   172.12590190     6.97008671
 H     14   1   2     0.986458376348   113.96889455     4.73303003
 C     14   1   2     1.521779993839   136.24094239   170.46883049
 H     16  14   1     1.101325829296   105.11857747   268.01385033
 H     16  14   1     1.096212350566   104.84869018    24.51723652
 C     16  14   1     1.547544830593   109.17979630   146.35339061
 N     19  16  14     1.520372265379   112.17898961   171.54372575
 H     19  16  14     1.100296036929   111.26234249    53.10250169
 H     19  16  14     1.097532854251   111.36971864   291.35240400
 H     20  19  16     1.035851269099   113.71882767    62.21499231
 H     20  19  16     1.036220622146   113.78826309   298.35583558
 H     20  19  16     1.039247131484   109.05750995   180.21434603

---------------------------
INTERNAL COORDINATES (A.U.)
---------------------------
 Co     0   0   0     0.000000000000     0.00000000     0.00000000
 O      1   0   0     3.643099987525     0.00000000     0.00000000
 H      2   1   0     1.864040026355   113.98575684     0.00000000
 C      2   1   3     2.875981447775   136.20181322   165.74889451
 H      4   2   1     2.081175683675   105.12658606   269.02635539
 H      4   2   1     2.071612875932   104.83641862    25.55112476
 C      4   2   1     2.924487255883   109.13695470   147.36198967
 N      7   4   2     2.872781260041   112.22151890   171.56673243
 H      7   4   2     2.079403091073   111.22473276    53.11050435
 H      7   4   2     2.074157594442   111.35308274   291.42319842
 H      8   7   4     1.957463935136   113.71101980    62.17719033
 H      8   7   4     1.958136865164   113.77388061   298.31378917
 H      8   7   4     1.963874616903   109.05068050   180.17623801
 O      1   2   3     3.642582546137   172.12590190     6.97008671
 H     14   1   2     1.864136173810   113.96889455     4.73303003
 C     14   1   2     2.875747424436   136.24094239   170.46883049
 H     16  14   1     2.081204201583   105.11857747   268.01385033
 H     16  14   1     2.071541127191   104.84869018    24.51723652
 C     16  14   1     2.924435909785   109.17979630   146.35339061
 N     19  16  14     2.873087203176   112.17898961   171.54372575
 H     19  16  14     2.079258176035   111.26234249    53.10250169
 H     19  16  14     2.074036517516   111.36971864   291.35240400
 H     20  19  16     1.957475214073   113.71882767    62.21499231
 H     20  19  16     1.958173190178   113.78826309   298.35583558
 H     20  19  16     1.963892463967   109.05750995   180.21434603

---------------------
BASIS SET INFORMATION
---------------------
There are 5 groups of distinct atoms

 Group   1 Type Co  : 17s12p7d2f1g contracted to 10s7p4d2f1g pattern {8111111111/6111111/4111/11/1}
 Group   2 Type O   : 11s6p2d1f contracted to 6s3p2d1f pattern {611111/411/11/1}
 Group   3 Type H   : 5s2p1d contracted to 3s2p1d pattern {311/11/1}
 Group   4 Type C   : 11s6p2d1f contracted to 6s3p2d1f pattern {611111/411/11/1}
 Group   5 Type N   : 11s6p2d1f contracted to 6s3p2d1f pattern {611111/411/11/1}

Atom   0Co   basis set group =>   1
Atom   1O    basis set group =>   2
Atom   2H    basis set group =>   3
Atom   3C    basis set group =>   4
Atom   4H    basis set group =>   3
Atom   5H    basis set group =>   3
Atom   6C    basis set group =>   4
Atom   7N    basis set group =>   5
Atom   8H    basis set group =>   3
Atom   9H    basis set group =>   3
Atom  10H    basis set group =>   3
Atom  11H    basis set group =>   3
Atom  12H    basis set group =>   3
Atom  13O    basis set group =>   2
Atom  14H    basis set group =>   3
Atom  15C    basis set group =>   4
Atom  16H    basis set group =>   3
Atom  17H    basis set group =>   3
Atom  18C    basis set group =>   4
Atom  19N    basis set group =>   5
Atom  20H    basis set group =>   3
Atom  21H    basis set group =>   3
Atom  22H    basis set group =>   3
Atom  23H    basis set group =>   3
Atom  24H    basis set group =>   3
---------------------------------
AUXILIARY/J BASIS SET INFORMATION
---------------------------------
There are 5 groups of distinct atoms

 Group   1 Type Co  : 22s18p17d17f16g6h3i contracted to 22s18p17d17f16g6h3i pattern {1111111111111111111111/111111111111111111/11111111111111111/11111111111111111/1111111111111111/111111/111}
 Group   2 Type O   : 16s13p12d7f3g contracted to 16s13p12d7f3g pattern {1111111111111111/1111111111111/111111111111/1111111/111}
 Group   3 Type H   : 11s4p3d2f contracted to 11s4p3d2f pattern {11111111111/1111/111/11}
 Group   4 Type C   : 16s13p12d7f3g contracted to 16s13p12d7f3g pattern {1111111111111111/1111111111111/111111111111/1111111/111}
 Group   5 Type N   : 16s13p12d7f3g contracted to 16s13p12d7f3g pattern {1111111111111111/1111111111111/111111111111/1111111/111}

Atom   0Co   basis set group =>   1
Atom   1O    basis set group =>   2
Atom   2H    basis set group =>   3
Atom   3C    basis set group =>   4
Atom   4H    basis set group =>   3
Atom   5H    basis set group =>   3
Atom   6C    basis set group =>   4
Atom   7N    basis set group =>   5
Atom   8H    basis set group =>   3
Atom   9H    basis set group =>   3
Atom  10H    basis set group =>   3
Atom  11H    basis set group =>   3
Atom  12H    basis set group =>   3
Atom  13O    basis set group =>   2
Atom  14H    basis set group =>   3
Atom  15C    basis set group =>   4
Atom  16H    basis set group =>   3
Atom  17H    basis set group =>   3
Atom  18C    basis set group =>   4
Atom  19N    basis set group =>   5
Atom  20H    basis set group =>   3
Atom  21H    basis set group =>   3
Atom  22H    basis set group =>   3
Atom  23H    basis set group =>   3
Atom  24H    basis set group =>   3
---------------------------------
AUXILIARY/C BASIS SET INFORMATION
---------------------------------
There are 5 groups of distinct atoms

 Group   1 Type Co  : 22s18p17d17f16g6h3i contracted to 22s18p17d17f16g6h3i pattern {1111111111111111111111/111111111111111111/11111111111111111/11111111111111111/1111111111111111/111111/111}
 Group   2 Type O   : 16s13p12d7f3g contracted to 16s13p12d7f3g pattern {1111111111111111/1111111111111/111111111111/1111111/111}
 Group   3 Type H   : 11s4p3d2f contracted to 11s4p3d2f pattern {11111111111/1111/111/11}
 Group   4 Type C   : 16s13p12d7f3g contracted to 16s13p12d7f3g pattern {1111111111111111/1111111111111/111111111111/1111111/111}
 Group   5 Type N   : 16s13p12d7f3g contracted to 16s13p12d7f3g pattern {1111111111111111/1111111111111/111111111111/1111111/111}

Atom   0Co   basis set group =>   1
Atom   1O    basis set group =>   2
Atom   2H    basis set group =>   3
Atom   3C    basis set group =>   4
Atom   4H    basis set group =>   3
Atom   5H    basis set group =>   3
Atom   6C    basis set group =>   4
Atom   7N    basis set group =>   5
Atom   8H    basis set group =>   3
Atom   9H    basis set group =>   3
Atom  10H    basis set group =>   3
Atom  11H    basis set group =>   3
Atom  12H    basis set group =>   3
Atom  13O    basis set group =>   2
Atom  14H    basis set group =>   3
Atom  15C    basis set group =>   4
Atom  16H    basis set group =>   3
Atom  17H    basis set group =>   3
Atom  18C    basis set group =>   4
Atom  19N    basis set group =>   5
Atom  20H    basis set group =>   3
Atom  21H    basis set group =>   3
Atom  22H    basis set group =>   3
Atom  23H    basis set group =>   3
Atom  24H    basis set group =>   3
----------------------------------
AUXILIARY/JK BASIS SET INFORMATION
----------------------------------
There are 5 groups of distinct atoms

 Group   1 Type Co  : 22s18p17d17f16g6h3i contracted to 22s18p17d17f16g6h3i pattern {1111111111111111111111/111111111111111111/11111111111111111/11111111111111111/1111111111111111/111111/111}
 Group   2 Type O   : 16s13p12d7f3g contracted to 16s13p12d7f3g pattern {1111111111111111/1111111111111/111111111111/1111111/111}
 Group   3 Type H   : 11s4p3d2f contracted to 11s4p3d2f pattern {11111111111/1111/111/11}
 Group   4 Type C   : 16s13p12d7f3g contracted to 16s13p12d7f3g pattern {1111111111111111/1111111111111/111111111111/1111111/111}
 Group   5 Type N   : 16s13p12d7f3g contracted to 16s13p12d7f3g pattern {1111111111111111/1111111111111/111111111111/1111111/111}

Atom   0Co   basis set group =>   1
Atom   1O    basis set group =>   2
Atom   2H    basis set group =>   3
Atom   3C    basis set group =>   4
Atom   4H    basis set group =>   3
Atom   5H    basis set group =>   3
Atom   6C    basis set group =>   4
Atom   7N    basis set group =>   5
Atom   8H    basis set group =>   3
Atom   9H    basis set group =>   3
Atom  10H    basis set group =>   3
Atom  11H    basis set group =>   3
Atom  12H    basis set group =>   3
Atom  13O    basis set group =>   2
Atom  14H    basis set group =>   3
Atom  15C    basis set group =>   4
Atom  16H    basis set group =>   3
Atom  17H    basis set group =>   3
Atom  18C    basis set group =>   4
Atom  19N    basis set group =>   5
Atom  20H    basis set group =>   3
Atom  21H    basis set group =>   3
Atom  22H    basis set group =>   3
Atom  23H    basis set group =>   3
Atom  24H    basis set group =>   3


           ************************************************************
           *        Program running with 10 parallel MPI-processes    *
           *              working on a common directory               *
           ************************************************************
------------------------------------------------------------------------------
                           ORCA GTO INTEGRAL CALCULATION
                           -- RI-GTO INTEGRALS CHOSEN --
------------------------------------------------------------------------------
------------------------------------------------------------------------------
                   ___                                                        
                  /   \      - P O W E R E D   B Y -                         
                 /     \                                                     
                 |  |  |   _    _      __       _____    __    __             
                 |  |  |  | |  | |    /  \     |  _  \  |  |  /  |          
                  \  \/   | |  | |   /    \    | | | |  |  | /  /          
                 / \  \   | |__| |  /  /\  \   | |_| |  |  |/  /          
                |  |  |   |  __  | /  /__\  \  |    /   |      \           
                |  |  |   | |  | | |   __   |  |    \   |  |\   \          
                \     /   | |  | | |  |  |  |  | |\  \  |  | \   \       
                 \___/    |_|  |_| |__|  |__|  |_| \__\ |__|  \__/        
                                                                              
                      - O R C A' S   B I G   F R I E N D -                    
                                      &                                       
                       - I N T E G R A L  F E E D E R -                       
                                                                              
 v1 FN, 2020, v2 2021                                                         
------------------------------------------------------------------------------


Reading SHARK input file rho.SHARKINP.tmp ... ok
----------------------
SHARK INTEGRAL PACKAGE
----------------------

Number of atoms                             ...     25
Number of basis functions                   ...    554
Number of shells                            ...    216
Maximum angular momentum                    ...      4
Integral batch strategy                     ... SHARK/LIBINT Hybrid
RI-J (if used) integral strategy            ... SPLIT-RIJ (Revised 2003 algorithm where possible)
Printlevel                                  ...      1
Contraction scheme used                     ... SEGMENTED contraction
Coulomb Range Separation                    ... NOT USED
Exchange Range Separation                   ... NOT USED
Finite Nucleus Model                        ... NOT USED
Auxiliary Coulomb fitting basis             ... AVAILABLE
   # of basis functions in Aux-J            ...   2889
   # of shells in Aux-J                     ...    827
   Maximum angular momentum in Aux-J        ...      6
Auxiliary J/K fitting basis                 ... AVAILABLE
   # of basis functions in Aux-JK           ...   2889
   # of shells in Aux-JK                    ...    827
   Maximum angular momentum in Aux-JK       ...      6
Auxiliary Correlation fitting basis         ... AVAILABLE
   # of basis functions in Aux-C            ...   2889
   # of shells in Aux-C                     ...    827
   Maximum angular momentum in Aux-C        ...      6
Auxiliary 'external' fitting basis          ... NOT available
Integral threshold                          ...     1.000000e-12
Primitive cut-off                           ...     1.000000e-14
Primitive pair pre-selection threshold      ...     1.000000e-14

Calculating pre-screening integrals         ... done (  0.1 sec) Dimension = 216
Organizing shell pair data                  ... done (  0.2 sec)
Shell pair information
Total number of shell pairs                 ...     23436
Shell pairs after pre-screening             ...     15289
Total number of primitive shell pairs       ...     53893
Primitive shell pairs kept                  ...     27559
          la=0 lb=0:   3781 shell pairs
          la=1 lb=0:   4462 shell pairs
          la=1 lb=1:   1367 shell pairs
          la=2 lb=0:   2406 shell pairs
          la=2 lb=1:   1429 shell pairs
          la=2 lb=2:    401 shell pairs
          la=3 lb=0:    670 shell pairs
          la=3 lb=1:    392 shell pairs
          la=3 lb=2:    211 shell pairs
          la=3 lb=3:     34 shell pairs
          la=4 lb=0:     68 shell pairs
          la=4 lb=1:     39 shell pairs
          la=4 lb=2:     20 shell pairs
          la=4 lb=3:      8 shell pairs
          la=4 lb=4:      1 shell pairs

Calculating one electron integrals          ... done (  0.0 sec)
Calculating RI/J V-Matrix + Cholesky decomp.... done (  0.5 sec)
Calculating RI/JK V-Matrix + Cholesky decomp... done (  0.5 sec)
Calculating RI/C V-Matrix + Cholesky decomp.... done (  0.5 sec)
Calculating Nuclear repulsion               ... done (  0.0 sec) ENN=    663.782312167685 Eh

SHARK setup successfully completed in   2.1 seconds

Maximum memory used throughout the entire GTOINT-calculation: 50.0 MB


           ************************************************************
           *        Program running with 10 parallel MPI-processes    *
           *              working on a common directory               *
           ************************************************************
------------------------------------------------------------------------------
                          ORCA RELATIVISTIC HAMILTONIAN
------------------------------------------------------------------------------

Relativistic Method            ... DKH
Order of DKH treatment         ...   2
Treatment of potential         ... V(e,N)
Eps parameter for DKH          ...   0.00000000010000
Nucleus model                  ... Point Nucleus
Speed of light used            ... 137.03598950000000


            ************************************************
            *        DOUGLAS-KROLL-HESS HAMILTONIAN        *
            *   Programmed by FN according to literature   *
            *        procedures. Special thanks to         *
            *       B.A. Hess, M. Reiher and A. Wolf       *
            *     University Erlangen-Nuernberg/Bonn       *
            ************************************************

Uncontracting the basis (first version)        ... done
Number of contracted basis functions           ...  554
Number of uncontracted basis functions         ...  735
Initializing the DKH file                      ... done
Calculating the relativistic integrals         ... done
Storing DKH matrices                           ... done
Code used for DKH trafo                        ... ORCA
Computing the DKH transformation               ... done
Storing the transformation variables           ... done
Transforming V and pVp to p**2 space           ... done
First transformation of V and pVp              ... done
Second transformation of Veff                  ... done
Adding kinetic energy                          ... done
Back transformation of Veff to r-space         ... done
Recovering DKH matrices                        ... done
Recontracting the H-matrix (first version)     ... done
Computing the DKH correction to the H-matrix   ... done
Reading the original H-matrix                  ... done
Adding DKH correction to the H-matrix          ... done
Storing the new modified H-matrix              ... done

Maximum memory used throughout the entire REL-calculation: 79.9 MB


           ************************************************************
           *        Program running with 10 parallel MPI-processes    *
           *              working on a common directory               *
           ************************************************************
-------------------------------------------------------------------------------
                                 ORCA SCF
-------------------------------------------------------------------------------

------------
SCF SETTINGS
------------
Hamiltonian:
 Ab initio Hamiltonian  Method          .... Hartree-Fock(GTOs)
 RI-approximation to the Coulomb term is turned on
   Number of AuxJ basis functions       .... 2889
   RIJ-COSX (HFX calculated with COS-X)).... on

Relativistic Settings:
 Scalar relativistic method             .... Douglas-Kroll-Hess
 Order of DKH procedure    Order        ....    2
 Mode of DKH-treatment                  .... V=V(e,N)
 Speed of light used       Velit        ....       137.035989
 Cutoff-constant           Eps          ....            1e-10 


General Settings:
 Integral files         IntName         .... rho
 Hartree-Fock type      HFTyp           .... CASSCF
 Total Charge           Charge          ....    4
 Multiplicity           Mult            ....    4
 Number of Electrons    NEL             ....   93
 Basis Dimension        Dim             ....  554
 Nuclear Repulsion      ENuc            ....    663.7823121677 Eh


Diagonalization of the overlap matrix:
Smallest eigenvalue                        ... 2.741e-04
Time for diagonalization                   ...    0.076 sec
Threshold for overlap eigenvalues          ... 1.000e-08
Number of eigenvalues below threshold      ... 0
Time for construction of square roots      ...    0.053 sec
Total time needed                          ...    0.131 sec

---------------------
INITIAL GUESS: MOREAD
---------------------
Guess MOs are being read from file: orb.gbw
Input Geometry matches current geometry (good)
Atom 0: N(Shells)= 24 and 18 - projection required
Input basis set needs projection
NBasis(read)= 536
NBasis(calc)= 554
Basis set overlap was calculated
Using GuessMode=CMatrix for the initial guess
Initial orthogonal set was formed
CASSCF - fitting 2 shells:
   closed-shell contains  43 orbitals (  0 ...  42)
   active space contains   5 orbitals ( 43 ...  47)
Virtual orbitals were projected
Gram-Schmidt orthogonalization of all MOs with pivot on actives
-----------------
ORBITAL ROTATIONS
-----------------
  Rotation  44(0)   42(0) cos(t)= 0.000000  sin(t)= 1.000000
  Orbital Energies were swapped
Initial density was built
Canonicalizing active space vectors CAS(7,5) {43-47} C(554,554) Cact Ract BOVL(536,554) COVL Diag BackTrafo Restore
Active space vectors have been canonicalized
                      ------------------
                      INITIAL GUESS DONE (   2.3 sec)
                      ------------------
--------------------
COSX GRID GENERATION
--------------------

GRIDX 1
-------
General Integration Accuracy     IntAcc      ... 3.816
Radial Grid Type                 RadialGrid  ... OptM3 with GC (2021)
Angular Grid (max. ang.)         AngularGrid ... 1 (Lebedev-50)
Angular grid pruning method      GridPruning ... 4 (adaptive)
Weight generation scheme         WeightScheme... Becke
Basis function cutoff            BFCut       ... 1.0000e-12
Integration weight cutoff        WCut        ... 1.0000e-14
Angular grids for H and He will be reduced by one unit
Partially contracted basis set               ... on
Rotationally invariant grid construction     ... off

Total number of grid points                  ...    14071
Total number of batches                      ...      233
Average number of points per batch           ...       60
Average number of grid points per atom       ...      563

GRIDX 2
-------
General Integration Accuracy     IntAcc      ... 4.020
Radial Grid Type                 RadialGrid  ... OptM3 with GC (2021)
Angular Grid (max. ang.)         AngularGrid ... 2 (Lebedev-110)
Angular grid pruning method      GridPruning ... 4 (adaptive)
Weight generation scheme         WeightScheme... Becke
Basis function cutoff            BFCut       ... 1.0000e-12
Integration weight cutoff        WCut        ... 1.0000e-14
Angular grids for H and He will be reduced by one unit
Partially contracted basis set               ... on
Rotationally invariant grid construction     ... off

Total number of grid points                  ...    29356
Total number of batches                      ...      474
Average number of points per batch           ...       61
Average number of grid points per atom       ...     1174

GRIDX 3
-------
General Integration Accuracy     IntAcc      ... 4.338
Radial Grid Type                 RadialGrid  ... OptM3 with GC (2021)
Angular Grid (max. ang.)         AngularGrid ... 3 (Lebedev-194)
Angular grid pruning method      GridPruning ... 4 (adaptive)
Weight generation scheme         WeightScheme... Becke
Basis function cutoff            BFCut       ... 1.0000e-12
Integration weight cutoff        WCut        ... 1.0000e-14
Angular grids for H and He will be reduced by one unit
Partially contracted basis set               ... on
Rotationally invariant grid construction     ... off

Total number of grid points                  ...    64261
Total number of batches                      ...     1015
Average number of points per batch           ...       63
Average number of grid points per atom       ...     2570

Time for X-Grid setup             =    0.501 sec



 ... the calculation is a CASSCF calculation -I'm leaving here GOOD LUCK!!!



           ************************************************************
           *        Program running with 10 parallel MPI-processes    *
           *              working on a common directory               *
           ************************************************************
-------------------------------------------------------------------------------
                              ORCA-CASSCF
-------------------------------------------------------------------------------

Setting up the integral package       ... done
Setting up the integral package (RI)  ... done
Building the CAS space                ... done (10 configurations for Mult=4)
Building the CAS space                ... done (30 configurations for Mult=2)

SYSTEM-SPECIFIC SETTINGS:
Number of active electrons          ...    7
Number of active orbitals           ...    5
Total number of electrons           ...   93
Total number of orbitals            ...  554
Total number aux. functions         ... 2889

Determined orbital ranges:
   Internal       0 -   42 (  43 orbitals)
   Active        43 -   47 (   5 orbitals)
   External      48 -  553 ( 506 orbitals)
Number of rotation parameters      ...  24503

CI-STEP:
CI strategy                         ... General CI
Number of multiplicity blocks       ...    2
BLOCK  1 WEIGHT=   0.5000
  Multiplicity                      ...    4
  #(Configurations)                 ...   10
  #(CSFs)                           ...   10
  #(Roots)                          ...   10
    ROOT=0 WEIGHT=    0.050000
    ROOT=1 WEIGHT=    0.050000
    ROOT=2 WEIGHT=    0.050000
    ROOT=3 WEIGHT=    0.050000
    ROOT=4 WEIGHT=    0.050000
    ROOT=5 WEIGHT=    0.050000
    ROOT=6 WEIGHT=    0.050000
    ROOT=7 WEIGHT=    0.050000
    ROOT=8 WEIGHT=    0.050000
    ROOT=9 WEIGHT=    0.050000

BLOCK  2 WEIGHT=   0.5000
  Multiplicity                      ...    2
  #(Configurations)                 ...   30
  #(CSFs)                           ...   40
  #(Roots)                          ...   40
    ROOT=0 WEIGHT=    0.012500
    ROOT=1 WEIGHT=    0.012500
    ROOT=2 WEIGHT=    0.012500
    ROOT=3 WEIGHT=    0.012500
    ROOT=4 WEIGHT=    0.012500
    ROOT=5 WEIGHT=    0.012500
    ROOT=6 WEIGHT=    0.012500
    ROOT=7 WEIGHT=    0.012500
    ROOT=8 WEIGHT=    0.012500
    ROOT=9 WEIGHT=    0.012500
    ROOT=10 WEIGHT=    0.012500
    ROOT=11 WEIGHT=    0.012500
    ROOT=12 WEIGHT=    0.012500
    ROOT=13 WEIGHT=    0.012500
    ROOT=14 WEIGHT=    0.012500
    ROOT=15 WEIGHT=    0.012500
    ROOT=16 WEIGHT=    0.012500
    ROOT=17 WEIGHT=    0.012500
    ROOT=18 WEIGHT=    0.012500
    ROOT=19 WEIGHT=    0.012500
    ROOT=20 WEIGHT=    0.012500
    ROOT=21 WEIGHT=    0.012500
    ROOT=22 WEIGHT=    0.012500
    ROOT=23 WEIGHT=    0.012500
    ROOT=24 WEIGHT=    0.012500
    ROOT=25 WEIGHT=    0.012500
    ROOT=26 WEIGHT=    0.012500
    ROOT=27 WEIGHT=    0.012500
    ROOT=28 WEIGHT=    0.012500
    ROOT=29 WEIGHT=    0.012500
    ROOT=30 WEIGHT=    0.012500
    ROOT=31 WEIGHT=    0.012500
    ROOT=32 WEIGHT=    0.012500
    ROOT=33 WEIGHT=    0.012500
    ROOT=34 WEIGHT=    0.012500
    ROOT=35 WEIGHT=    0.012500
    ROOT=36 WEIGHT=    0.012500
    ROOT=37 WEIGHT=    0.012500
    ROOT=38 WEIGHT=    0.012500
    ROOT=39 WEIGHT=    0.012500

  PrintLevel                        ...    1
  N(GuessMat)                       ...       512
  MaxDim(CI)                        ...        10
  MaxIter(CI)                       ...        64
  Energy Tolerance CI               ...  1.00e-09
  Residual Tolerance CI             ...  1.00e-09
  Shift(CI)                         ...  1.00e-04

INTEGRAL-TRANSFORMATION-STEP:
  Algorithm                         ... RI-MO

ORBITAL-IMPROVEMENT-STEP:
  Algorithm                         ... SuperCI
  Default Parametrization           ... CAYLEY
  Act-Act rotations                 ... depends on algorithm used
  FreezeIE                          ... 95.00% of ||g||
  Until reaching FreezeIE rotations with active orbitals are damped. 

  Approx. Fock at                   ... 0.000000e+00 density convergence
  Level shift                       ... energy gap dependent. Minimum=1.000
  Switch step at gradient           ...  3.00e-02 
  Switch step at iteration          ...        50   
  Switch step to                    ... DIIS    

SCF-SETTINGS:
  Incremental                       ... off
  RIJCOSX approximation             ... on
  UseFinalGrid                      ... on
  RI-JK approximation               ... off
  AO integral handling              ... DIRECT
  Integral Neglect Thresh           ...  1.00e-12
  Primitive cutoff TCut             ...  1.00e-14
  Energy convergence tolerance      ...  1.00e-08
  Orbital gradient convergence      ...  1.00e-05
  Max. number of iterations         ...       100  


PROPERTIES-SETTINGS:
  Spin orbit coupling               ... true
  GTensor                           ... true

FINAL ORBITALS:
  Active   Orbitals                 ... d-orbitals 
  Internal Orbitals                 ... canonical 
  External Orbitals                 ... canonical 

------------------
CAS-SCF ITERATIONS
------------------


MACRO-ITERATION   1: 
   --- Canonicalize Internal Space
   --- Canonicalize External Space
   --- Inactive Energy E0 = -1788.24794348 Eh
CI-ITERATION   0: 
 -1808.985822631   0.000000000000 (    0.00)
 -1808.969380849   0.000000000000
 -1808.963909149   0.000000000000
 -1808.942483421   0.000000000000
 -1808.633630350   0.000000000000
 -1808.628175264   0.000000000000
 -1808.621231081   0.000000000000
 -1808.594600660   0.000000000000
 -1808.575612757   0.000000000000
 -1808.548820401   0.000000000000
   CI-PROBLEM SOLVED
   DENSITIES MADE
CI-ITERATION   0: 
 -1808.912443585   0.000000000000 (    0.00)
 -1808.905951522   0.000000000000
 -1808.901535497   0.000000000000
 -1808.893358668   0.000000000000
 -1808.888187263   0.000000000000
 -1808.883566441   0.000000000000
 -1808.878844601   0.000000000000
 -1808.876570185   0.000000000000
 -1808.875189926   0.000000000000
 -1808.871017615   0.000000000000
 -1808.867149616   0.000000000000
 -1808.861302595   0.000000000000
 -1808.856916605   0.000000000000
 -1808.855657839   0.000000000000
 -1808.852632979   0.000000000000
 -1808.845026867   0.000000000000
 -1808.767240710   0.000000000000
 -1808.751071088   0.000000000000
 -1808.744744138   0.000000000000
 -1808.742362171   0.000000000000
 -1808.628468058   0.000000000000
 -1808.611654633   0.000000000000
 -1808.611153453   0.000000000000
 -1808.577813346   0.000000000000
 -1808.563365858   0.000000000000
 -1808.558033184   0.000000000000
 -1808.555460290   0.000000000000
 -1808.545055474   0.000000000000
 -1808.543580854   0.000000000000
 -1808.536025321   0.000000000000
 -1808.530983462   0.000000000000
 -1808.518746085   0.000000000000
 -1808.517061697   0.000000000000
 -1808.513109218   0.000000000000
 -1808.512850602   0.000000000000
 -1808.402713546   0.000000000000
 -1807.551067116   0.000000000000
 -1807.524443117   0.000000000000
 -1807.517477477   0.000000000000
 -1807.502019324   0.000000000000
   CI-PROBLEM SOLVED
   DENSITIES MADE

                 <<<<<<<<<<<<<<<<<<INITIAL CI STATE CHECK>>>>>>>>>>>>>>>>>>

BLOCK  1 MULT= 4 NROOTS=10 
ROOT   0:  E=   -1808.9858226311 Eh
      0.89519 [     6]: 21112
      0.10449 [     7]: 21121
ROOT   1:  E=   -1808.9693808494 Eh  0.447 eV   3608.6 cm**-1
      0.58123 [     1]: 11212
      0.19633 [     0]: 11122
      0.13612 [     3]: 12112
      0.06803 [     2]: 11221
      0.01801 [     4]: 12121
ROOT   2:  E=   -1808.9639091493 Eh  0.596 eV   4809.5 cm**-1
      0.80155 [     0]: 11122
      0.12447 [     1]: 11212
      0.05133 [     3]: 12112
      0.01785 [     2]: 11221
      0.00467 [     4]: 12121
ROOT   3:  E=   -1808.9424834213 Eh  1.179 eV   9511.9 cm**-1
      0.70138 [     3]: 12112
      0.18505 [     1]: 11212
      0.08826 [     4]: 12121
      0.02330 [     2]: 11221
ROOT   4:  E=   -1808.6336303499 Eh  9.584 eV  77297.3 cm**-1
      0.85813 [     7]: 21121
      0.10073 [     6]: 21112
      0.02519 [     5]: 12211
      0.01233 [     8]: 21211
ROOT   5:  E=   -1808.6281752644 Eh  9.732 eV  78494.5 cm**-1
      0.65750 [     8]: 21211
      0.17528 [     9]: 22111
      0.10727 [     4]: 12121
      0.03160 [     2]: 11221
      0.01267 [     7]: 21121
      0.01062 [     3]: 12112
      0.00376 [     1]: 11212
ROOT   6:  E=   -1808.6212310806 Eh  9.921 eV  80018.6 cm**-1
      0.38823 [     2]: 11221
      0.36134 [     9]: 22111
      0.10368 [     4]: 12121
      0.08796 [     8]: 21211
      0.04547 [     1]: 11212
      0.01137 [     3]: 12112
ROOT   7:  E=   -1808.5946006600 Eh 10.646 eV  85863.3 cm**-1
      0.97183 [     5]: 12211
      0.02247 [     7]: 21121
      0.00286 [     6]: 21112
ROOT   8:  E=   -1808.5756127569 Eh 11.162 eV  90030.7 cm**-1
      0.43189 [     9]: 22111
      0.31289 [     2]: 11221
      0.11664 [     8]: 21211
      0.08444 [     4]: 12121
      0.04024 [     1]: 11212
      0.01178 [     3]: 12112
ROOT   9:  E=   -1808.5488204009 Eh 11.891 eV  95910.9 cm**-1
      0.59147 [     4]: 12121
      0.15472 [     2]: 11221
      0.12497 [     8]: 21211
      0.07706 [     3]: 12112
      0.03109 [     9]: 22111
      0.01967 [     1]: 11212

BLOCK  2 MULT= 2 NROOTS=40 
ROOT   0:  E=   -1808.9124435845 Eh
      0.65486 [    17]: 21022
      0.17968 [    14]: 20122
      0.04707 [    18]: 21112
      0.03344 [    20]: 21202
      0.01912 [     0]: 01222
      0.01160 [     9]: 12112
      0.01027 [    25]: 22102
      0.00764 [    21]: 21211
      0.00567 [    15]: 20212
      0.00532 [     8]: 12022
      0.00509 [     5]: 11122
      0.00500 [     1]: 02122
      0.00403 [    19]: 21121
      0.00335 [     6]: 11212
ROOT   1:  E=   -1808.9059515223 Eh  0.177 eV   1424.8 cm**-1
      0.58168 [    18]: 21112
      0.07342 [    23]: 22012
      0.07209 [    15]: 20212
      0.06067 [     8]: 12022
      0.05807 [     5]: 11122
      0.05187 [    19]: 21121
      0.05035 [    17]: 21022
      0.01375 [    20]: 21202
      0.00860 [    16]: 20221
      0.00833 [    24]: 22021
      0.00756 [    14]: 20122
      0.00487 [    11]: 12202
ROOT   2:  E=   -1808.9015354966 Eh  0.297 eV   2394.0 cm**-1
      0.44718 [     5]: 11122
      0.18456 [    18]: 21112
      0.17389 [    23]: 22012
      0.05918 [     4]: 10222
      0.05701 [     8]: 12022
      0.02181 [    24]: 22021
      0.02061 [    19]: 21121
      0.00993 [     6]: 11212
      0.00883 [     2]: 02212
      0.00380 [    25]: 22102
      0.00252 [    17]: 21022
ROOT   3:  E=   -1808.8933586676 Eh  0.519 eV   4188.7 cm**-1
      0.27129 [    14]: 20122
      0.23044 [     6]: 11212
      0.18098 [    25]: 22102
      0.06891 [    17]: 21022
      0.05978 [     9]: 12112
      0.04618 [    20]: 21202
      0.03828 [    26]: 22111
      0.02755 [     1]: 02122
      0.01936 [     7]: 11221
      0.01304 [     5]: 11122
      0.00939 [    21]: 21211
      0.00868 [    18]: 21112
      0.00809 [     0]: 01222
      0.00562 [    23]: 22012
      0.00510 [    10]: 12121
      0.00326 [    15]: 20212
ROOT   4:  E=   -1808.8881872625 Eh  0.660 eV   5323.6 cm**-1
      0.36886 [    18]: 21112
      0.15814 [    23]: 22012
      0.15684 [    15]: 20212
      0.10362 [     4]: 10222
      0.05963 [    11]: 12202
      0.04062 [     8]: 12022
      0.03393 [    19]: 21121
      0.01805 [    24]: 22021
      0.01727 [    16]: 20221
      0.01340 [    12]: 12211
      0.01337 [     5]: 11122
      0.00472 [     6]: 11212
      0.00366 [    20]: 21202
      0.00273 [     9]: 12112
ROOT   5:  E=   -1808.8835664406 Eh  0.786 eV   6337.8 cm**-1
      0.40331 [     9]: 12112
      0.17632 [    20]: 21202
      0.10963 [     0]: 01222
      0.10793 [     6]: 11212
      0.05107 [    25]: 22102
      0.04472 [    10]: 12121
      0.03405 [    21]: 21211
      0.02858 [     1]: 02122
      0.01690 [    18]: 21112
      0.01197 [     7]: 11221
      0.00958 [    26]: 22111
ROOT   6:  E=   -1808.8788446008 Eh  0.914 eV   7374.1 cm**-1
      0.48655 [     6]: 11212
      0.12057 [     9]: 12112
      0.11551 [    14]: 20122
      0.05293 [     7]: 11221
      0.04660 [     1]: 02122
      0.03995 [     5]: 11122
      0.03317 [    17]: 21022
      0.01639 [     4]: 10222
      0.01504 [     8]: 12022
      0.01400 [    10]: 12121
      0.01318 [     0]: 01222
      0.01270 [    15]: 20212
      0.01209 [    25]: 22102
      0.00792 [    23]: 22012
      0.00326 [     2]: 02212
      0.00290 [    26]: 22111
      0.00253 [    20]: 21202
ROOT   7:  E=   -1808.8765701851 Eh  0.976 eV   7873.3 cm**-1
      0.20747 [    18]: 21112
      0.20084 [    15]: 20212
      0.13369 [     5]: 11122
      0.12287 [     8]: 12022
      0.12131 [     4]: 10222
      0.09349 [     2]: 02212
      0.02264 [    16]: 20221
      0.02194 [    19]: 21121
      0.02167 [     6]: 11212
      0.01113 [    14]: 20122
      0.01064 [     3]: 02221
      0.00662 [     9]: 12112
      0.00499 [    25]: 22102
      0.00486 [    20]: 21202
      0.00395 [     1]: 02122
      0.00393 [    17]: 21022
      0.00261 [     7]: 11221
ROOT   8:  E=   -1808.8751899263 Eh  1.014 eV   8176.2 cm**-1
      0.57118 [     9]: 12112
      0.14622 [     6]: 11212
      0.06296 [    20]: 21202
      0.05969 [    10]: 12121
      0.05611 [     0]: 01222
      0.02922 [    17]: 21022
      0.01858 [    25]: 22102
      0.01476 [     7]: 11221
      0.01401 [     1]: 02122
      0.01009 [    21]: 21211
      0.00754 [    14]: 20122
      0.00343 [    26]: 22111
ROOT   9:  E=   -1808.8710176147 Eh  1.127 eV   9091.9 cm**-1
      0.53644 [     5]: 11122
      0.15909 [    18]: 21112
      0.15675 [    23]: 22012
      0.03876 [    14]: 20122
      0.02419 [     6]: 11212
      0.01798 [    24]: 22021
      0.01660 [    19]: 21121
      0.01303 [     9]: 12112
      0.01183 [     4]: 10222
      0.01005 [     8]: 12022
      0.00541 [    17]: 21022
      0.00352 [     2]: 02212
      0.00272 [     7]: 11221
ROOT  10:  E=   -1808.8671496164 Eh  1.233 eV   9940.9 cm**-1
      0.35988 [     6]: 11212
      0.21202 [    14]: 20122
      0.10166 [     1]: 02122
      0.09686 [     9]: 12112
      0.06035 [    17]: 21022
      0.03252 [     7]: 11221
      0.02748 [     0]: 01222
      0.02640 [    25]: 22102
      0.02207 [     5]: 11122
      0.01422 [    18]: 21112
      0.01259 [    23]: 22012
      0.00853 [    10]: 12121
      0.00639 [    20]: 21202
      0.00526 [     2]: 02212
      0.00471 [    26]: 22111
ROOT  11:  E=   -1808.8613025946 Eh  1.392 eV  11224.1 cm**-1
      0.54133 [    11]: 12202
      0.10836 [    12]: 12211
      0.10160 [    18]: 21112
      0.07751 [     4]: 10222
      0.03113 [     5]: 11122
      0.02739 [    23]: 22012
      0.02523 [    15]: 20212
      0.01666 [    20]: 21202
      0.01574 [     0]: 01222
      0.01150 [     8]: 12022
      0.01127 [     6]: 11212
      0.00788 [    19]: 21121
      0.00485 [     9]: 12112
      0.00432 [     1]: 02122
      0.00271 [    13]: 12220
      0.00271 [    21]: 21211
ROOT  12:  E=   -1808.8569166048 Eh  1.511 eV  12186.8 cm**-1
      0.61495 [     2]: 02212
      0.08087 [     5]: 11122
      0.07679 [     8]: 12022
      0.07435 [     3]: 02221
      0.07260 [     4]: 10222
      0.03784 [    23]: 22012
      0.01514 [    15]: 20212
      0.00983 [     6]: 11212
      0.00501 [    18]: 21112
      0.00356 [    14]: 20122
      0.00336 [    24]: 22021
ROOT  13:  E=   -1808.8556578393 Eh  1.545 eV  12463.0 cm**-1
      0.39998 [     5]: 11122
      0.16694 [     8]: 12022
      0.08166 [     0]: 01222
      0.07774 [    11]: 12202
      0.05326 [     9]: 12112
      0.04609 [     4]: 10222
      0.04384 [    18]: 21112
      0.03265 [    20]: 21202
      0.02174 [     1]: 02122
      0.01705 [     6]: 11212
      0.01464 [    12]: 12211
      0.00853 [    15]: 20212
      0.00749 [    25]: 22102
      0.00667 [    23]: 22012
      0.00663 [    10]: 12121
      0.00573 [    21]: 21211
      0.00292 [    19]: 21121
ROOT  14:  E=   -1808.8526329786 Eh  1.628 eV  13126.9 cm**-1
      0.23635 [     0]: 01222
      0.21945 [     9]: 12112
      0.15183 [     5]: 11122
      0.07808 [    20]: 21202
      0.06146 [     1]: 02122
      0.05303 [     4]: 10222
      0.04638 [     6]: 11212
      0.03982 [     8]: 12022
      0.03240 [    18]: 21112
      0.02373 [    10]: 12121
      0.02336 [    25]: 22102
      0.01549 [    21]: 21211
      0.00614 [     7]: 11221
      0.00417 [    26]: 22111
      0.00367 [    17]: 21022
ROOT  15:  E=   -1808.8450268674 Eh  1.835 eV  14796.3 cm**-1
      0.27648 [    25]: 22102
      0.21228 [     6]: 11212
      0.20805 [     1]: 02122
      0.07171 [    20]: 21202
      0.05769 [     9]: 12112
      0.05396 [     0]: 01222
      0.05188 [    26]: 22111
      0.02080 [     7]: 11221
      0.01470 [    14]: 20122
      0.01377 [    21]: 21211
      0.00579 [    10]: 12121
      0.00390 [    17]: 21022
ROOT  16:  E=   -1808.7672407099 Eh  3.951 eV  31868.3 cm**-1
      0.26860 [    20]: 21202
      0.26737 [     0]: 01222
      0.16207 [     9]: 12112
      0.07255 [     1]: 02122
      0.07066 [    25]: 22102
      0.04871 [    17]: 21022
      0.04197 [     6]: 11212
      0.02658 [    21]: 21211
      0.01395 [    10]: 12121
      0.01269 [    14]: 20122
      0.00648 [    26]: 22111
      0.00424 [     7]: 11221
ROOT  17:  E=   -1808.7510710882 Eh  4.391 eV  35417.2 cm**-1
      0.36426 [    15]: 20212
      0.20598 [    23]: 22012
      0.15390 [     2]: 02212
      0.06163 [     5]: 11122
      0.04911 [     8]: 12022
      0.04497 [     4]: 10222
      0.03103 [    16]: 20221
      0.02228 [    18]: 21112
      0.01923 [    24]: 22021
      0.01826 [     3]: 02221
      0.00715 [     1]: 02122
      0.00423 [    20]: 21202
      0.00387 [     0]: 01222
      0.00382 [    25]: 22102
      0.00267 [     6]: 11212
ROOT  18:  E=   -1808.7447441380 Eh  4.563 eV  36805.8 cm**-1
      0.38273 [     4]: 10222
      0.33958 [     8]: 12022
      0.15883 [    11]: 12202
      0.03282 [    18]: 21112
      0.03203 [    15]: 20212
      0.03043 [    23]: 22012
      0.01459 [    12]: 12211
ROOT  19:  E=   -1808.7423621711 Eh  4.628 eV  37328.6 cm**-1
      0.39066 [     1]: 02122
      0.16710 [    25]: 22102
      0.11480 [    14]: 20122
      0.09961 [     0]: 01222
      0.08400 [     6]: 11212
      0.04269 [    20]: 21202
      0.02942 [    17]: 21022
      0.02252 [     9]: 12112
      0.01400 [    26]: 22111
      0.00879 [    15]: 20212
      0.00624 [     2]: 02212
      0.00523 [     7]: 11221
      0.00398 [    23]: 22012
      0.00385 [    21]: 21211
ROOT  20:  E=   -1808.6284680581 Eh  7.727 eV  62325.4 cm**-1
      0.89269 [    19]: 21121
      0.07102 [    18]: 21112
      0.01309 [    21]: 21211
      0.01061 [    12]: 12211
      0.00334 [    13]: 12220
      0.00309 [    10]: 12121
ROOT  21:  E=   -1808.6116546330 Eh  8.185 eV  66015.5 cm**-1
      0.53565 [     7]: 11221
      0.13804 [    21]: 21211
      0.10970 [    26]: 22111
      0.06399 [    10]: 12121
      0.04767 [     6]: 11212
      0.03976 [    22]: 21220
      0.03444 [    27]: 22120
      0.01044 [    20]: 21202
      0.00992 [    25]: 22102
      0.00486 [     9]: 12112
      0.00278 [    19]: 21121
ROOT  22:  E=   -1808.6111534526 Eh  8.199 eV  66125.5 cm**-1
      0.34662 [    21]: 21211
      0.21701 [    10]: 12121
      0.19430 [    26]: 22111
      0.10207 [    22]: 21220
      0.05764 [    27]: 22120
      0.02653 [     9]: 12112
      0.02165 [    20]: 21202
      0.01477 [    19]: 21121
      0.01363 [    25]: 22102
ROOT  23:  E=   -1808.5778133463 Eh  9.106 eV  73442.8 cm**-1
      0.71937 [    12]: 12211
      0.18937 [    13]: 12220
      0.05610 [    11]: 12202
      0.01592 [    19]: 21121
      0.00362 [     7]: 11221
      0.00255 [    16]: 20221
      0.00254 [    24]: 22021
ROOT  24:  E=   -1808.5633658576 Eh  9.499 eV  76613.7 cm**-1
      0.45039 [    26]: 22111
      0.22773 [     7]: 11221
      0.12042 [    21]: 21211
      0.06513 [    27]: 22120
      0.06413 [    10]: 12121
      0.01834 [    22]: 21220
      0.01713 [    25]: 22102
      0.01636 [     6]: 11212
      0.00454 [     9]: 12112
      0.00449 [    20]: 21202
      0.00295 [    28]: 22201
ROOT  25:  E=   -1808.5580331837 Eh  9.644 eV  77784.1 cm**-1
      0.25342 [    16]: 20221
      0.25109 [    19]: 21121
      0.24855 [    24]: 22021
      0.11629 [    12]: 12211
      0.03221 [    13]: 12220
      0.02618 [    18]: 21112
      0.02597 [    23]: 22012
      0.02597 [    15]: 20212
      0.01412 [    11]: 12202
      0.00343 [    26]: 22111
ROOT  26:  E=   -1808.5554602904 Eh  9.714 eV  78348.8 cm**-1
      0.58409 [    19]: 21121
      0.15880 [    16]: 20221
      0.13105 [    24]: 22021
      0.06102 [    18]: 21112
      0.01657 [    23]: 22012
      0.01402 [    15]: 20212
      0.01267 [     3]: 02221
      0.00789 [    21]: 21211
      0.00462 [    26]: 22111
      0.00323 [     7]: 11221
ROOT  27:  E=   -1808.5450554738 Eh  9.997 eV  80632.4 cm**-1
      0.41485 [    21]: 21211
      0.34673 [    10]: 12121
      0.09194 [     7]: 11221
      0.08818 [    26]: 22111
      0.03344 [     9]: 12112
      0.00882 [     6]: 11212
      0.00288 [    19]: 21121
      0.00286 [    12]: 12211
ROOT  28:  E=   -1808.5435808540 Eh 10.037 eV  80956.0 cm**-1
      0.34081 [    26]: 22111
      0.29507 [     7]: 11221
      0.09516 [    27]: 22120
      0.07643 [    10]: 12121
      0.06747 [    21]: 21211
      0.03465 [    25]: 22102
      0.03226 [     6]: 11212
      0.02369 [    22]: 21220
      0.00841 [     9]: 12112
      0.00825 [    20]: 21202
      0.00697 [    16]: 20221
      0.00415 [    19]: 21121
ROOT  29:  E=   -1808.5360253211 Eh 10.243 eV  82614.3 cm**-1
      0.31291 [    21]: 21211
      0.28170 [    10]: 12121
      0.11793 [    22]: 21220
      0.08620 [    26]: 22111
      0.07502 [     7]: 11221
      0.03966 [    20]: 21202
      0.03025 [    27]: 22120
      0.02306 [     9]: 12112
      0.01071 [    25]: 22102
      0.00955 [    12]: 12211
      0.00681 [     6]: 11212
ROOT  30:  E=   -1808.5309834617 Eh 10.380 eV  83720.8 cm**-1
      0.54949 [    28]: 22201
      0.14795 [    24]: 22021
      0.12797 [    16]: 20221
      0.12480 [    29]: 22210
      0.01784 [     3]: 02221
      0.01168 [    23]: 22012
      0.00811 [    15]: 20212
      0.00435 [    21]: 21211
      0.00273 [    26]: 22111
ROOT  31:  E=   -1808.5187460848 Eh 10.713 eV  86406.6 cm**-1
      0.40020 [     7]: 11221
      0.25479 [    26]: 22111
      0.12557 [    10]: 12121
      0.06343 [    21]: 21211
      0.04311 [     6]: 11212
      0.04242 [    27]: 22120
      0.01660 [    25]: 22102
      0.01396 [     9]: 12112
      0.01158 [    22]: 21220
      0.00921 [     3]: 02221
      0.00680 [    16]: 20221
      0.00415 [    20]: 21202
ROOT  32:  E=   -1808.5170616965 Eh 10.759 eV  86776.3 cm**-1
      0.58010 [    10]: 12121
      0.17684 [     7]: 11221
      0.06982 [    21]: 21211
      0.06732 [     9]: 12112
      0.03349 [    12]: 12211
      0.01983 [     6]: 11212
      0.01323 [    22]: 21220
      0.01204 [    26]: 22111
      0.00575 [    19]: 21121
      0.00465 [    24]: 22021
      0.00453 [    20]: 21202
      0.00287 [    13]: 12220
ROOT  33:  E=   -1808.5131092184 Eh 10.866 eV  87643.8 cm**-1
      0.54221 [     3]: 02221
      0.18799 [    24]: 22021
      0.07551 [    16]: 20221
      0.06372 [     2]: 02212
      0.04461 [    28]: 22201
      0.02110 [    23]: 22012
      0.01888 [    12]: 12211
      0.01025 [    29]: 22210
      0.00846 [    15]: 20212
      0.00763 [    26]: 22111
      0.00568 [     7]: 11221
      0.00332 [    21]: 21211
      0.00277 [    27]: 22120
ROOT  34:  E=   -1808.5128506025 Eh 10.873 eV  87700.5 cm**-1
      0.63205 [    12]: 12211
      0.10057 [    13]: 12220
      0.06802 [    16]: 20221
      0.04891 [    10]: 12121
      0.04707 [    19]: 21121
      0.04138 [    11]: 12202
      0.01740 [    24]: 22021
      0.01521 [     3]: 02221
      0.00686 [    15]: 20212
      0.00535 [     9]: 12112
      0.00485 [    18]: 21112
      0.00354 [     7]: 11221
ROOT  35:  E=   -1808.4027135457 Eh 13.870 eV 111872.8 cm**-1
      0.29384 [     3]: 02221
      0.21349 [    28]: 22201
      0.20675 [    16]: 20221
      0.15503 [    24]: 22021
      0.04631 [    29]: 22210
      0.03763 [     2]: 02212
      0.02373 [    15]: 20212
      0.01849 [    23]: 22012
      0.00375 [    19]: 21121
ROOT  36:  E=   -1807.5510671164 Eh 37.045 eV 298787.6 cm**-1
      0.52507 [    22]: 21220
      0.23570 [    21]: 21211
      0.13833 [    27]: 22120
      0.06248 [    26]: 22111
      0.02749 [    20]: 21202
      0.00733 [    25]: 22102
ROOT  37:  E=   -1807.5244431173 Eh 37.769 eV 304630.9 cm**-1
      0.81348 [    29]: 22210
      0.18058 [    28]: 22201
      0.00275 [    22]: 21220
ROOT  38:  E=   -1807.5174774772 Eh 37.959 eV 306159.7 cm**-1
      0.52676 [    27]: 22120
      0.23615 [    26]: 22111
      0.13706 [    22]: 21220
      0.06180 [    21]: 21211
      0.02746 [    25]: 22102
      0.00723 [    20]: 21202
ROOT  39:  E=   -1807.5020193244 Eh 38.380 eV 309552.3 cm**-1
      0.66333 [    13]: 12220
      0.29947 [    12]: 12211
      0.03503 [    11]: 12202

                 <<<<<<<<<<<<<<<<<<INITIAL CI STATE CHECK>>>>>>>>>>>>>>>>>>

   E(CAS)= -1808.671331478 Eh DE=    0.000000e+00
   --- Energy gap subspaces: Ext-Act = 0.992   Act-Int = 0.092
   --- current l-shift: Up(Ext-Act) = 1.01   Dn(Act-Int) = 1.91
   N(occ)=  1.40000 1.40000 1.40000 1.40000 1.40000
   ||g|| =     1.219234e+02 Max(G)=   -1.102076e+02 Rot=553,0
   --- Option=FreezeIE: ||g|| =    121.920206448 
                              = 100.00% 
                        Damping (0.029) elements outside Int-Ext
   --- Orbital Update [   SuperCI]
   SUPERCI-ITER   0: DE=    -0.263461657 <r|r>=      0.015763669
   SUPERCI-ITER   1: DE=    -0.002731142 <r|r>=      0.033562676
   SUPERCI-ITER   2: DE=    -0.000245095 <r|r>=      0.013242131
   SUPERCI-ITER   3: DE=    -0.000047793 <r|r>=      0.000121040
   SUPERCI-ITER   4: DE=    -0.000007408 <r|r>=      0.000061695
   SUPERCI-ITER   5: DE=    -0.000001150 <r|r>=      0.000002605
   SUPERCI-ITER   6: DE=    -0.000000198 <r|r>=      0.000000238
   SUPERCI-ITER   7: DE=    -0.000000046 <r|r>=      0.000000957
   SUPERCI-ITER   8: DE=    -0.000000009 <r|r>=      0.000000008
   SUPERCI-ITER   9: DE=    -0.000000001 <r|r>=      0.000000014
   SUPERCI-ITER  10: DE=    -0.000000000 
   <Psi(SX)|Psi(SX)>=      1.000000000 DE(SX)=-0.266494501
   Largest coefficient in the normalized |SX> wavefunction= 0.028893635
   --- Forming Natural Orbitals

MACRO-ITERATION   2: 
   --- Canonicalize Internal Space
   --- Canonicalize External Space
   --- Inactive Energy E0 = -1786.32098846 Eh
CI-ITERATION   0: 
 -1806.993831705   0.000000000000 (    0.00)
 -1806.977943932   0.000000000000
 -1806.971386540   0.000000000000
 -1806.947102896   0.000000000000
 -1806.591104642   0.000000000000
 -1806.586337848   0.000000000000
 -1806.577846429   0.000000000000
 -1806.549837807   0.000000000000
 -1806.531602991   0.000000000000
 -1806.503168655   0.000000000000
   CI-PROBLEM SOLVED
   DENSITIES MADE
CI-ITERATION   0: 
 -1806.919303266   0.000000000000 (    0.01)
 -1806.912912010   0.000000000000
 -1806.907811749   0.000000000000
 -1806.901217479   0.000000000000
 -1806.896100265   0.000000000000
 -1806.889552083   0.000000000000
 -1806.887377815   0.000000000000
 -1806.885587669   0.000000000000
 -1806.880052224   0.000000000000
 -1806.877524436   0.000000000000
 -1806.874845007   0.000000000000
 -1806.867860938   0.000000000000
 -1806.862547403   0.000000000000
 -1806.861316286   0.000000000000
 -1806.859222808   0.000000000000
 -1806.850216260   0.000000000000
 -1806.772870497   0.000000000000
 -1806.758988649   0.000000000000
 -1806.750819331   0.000000000000
 -1806.746574755   0.000000000000
 -1806.586822386   0.000000000000
 -1806.571809833   0.000000000000
 -1806.570039706   0.000000000000
 -1806.535702159   0.000000000000
 -1806.520813572   0.000000000000
 -1806.515652542   0.000000000000
 -1806.513716107   0.000000000000
 -1806.502047551   0.000000000000
 -1806.500936591   0.000000000000
 -1806.494615901   0.000000000000
 -1806.488015952   0.000000000000
 -1806.476033516   0.000000000000
 -1806.471685318   0.000000000000
 -1806.469100677   0.000000000000
 -1806.468093650   0.000000000000
 -1806.359315463   0.000000000000
 -1805.457242574   0.000000000000
 -1805.428409271   0.000000000000
 -1805.418963045   0.000000000000
 -1805.404246341   0.000000000000
   CI-PROBLEM SOLVED
   DENSITIES MADE
   E(CAS)= -1806.647957711 Eh DE=    2.023374e+00
   --- Energy gap subspaces: Ext-Act = 0.284   Act-Int = -0.005
   --- current l-shift: Up(Ext-Act) = 1.22   Dn(Act-Int) = 1.50
   N(occ)=  1.40000 1.40000 1.40000 1.40000 1.40000
   ||g|| =     2.074318e+02 Max(G)=    1.873760e+02 Rot=553,0
   --- Option=FreezeIE: ||g|| =    207.429788500 
                              = 100.00% 
                        Damping (0.029) elements outside Int-Ext
   --- Orbital Update [   SuperCI]
   SUPERCI-ITER   0: DE=    -0.751888685 <r|r>=      0.013891823
   SUPERCI-ITER   1: DE=    -0.005124215 <r|r>=      0.608851405
   SUPERCI-ITER   2: DE=    -0.000354671 <r|r>=      0.000002519
   SUPERCI-ITER   3: DE=    -0.000000648 <r|r>=      0.000000010
   SUPERCI-ITER   4: DE=    -0.000000002 <r|r>=      0.000000000
   <Psi(SX)|Psi(SX)>=      1.000000000 DE(SX)=-0.757368220
   Largest coefficient in the normalized |SX> wavefunction= 0.016639825
   --- Forming Natural Orbitals

MACRO-ITERATION   3: 
   --- Canonicalize Internal Space
   --- Canonicalize External Space
   --- Inactive Energy E0 = -1789.04188719 Eh
CI-ITERATION   0: 
 -1809.744623007   0.000000000000 (    0.00)
 -1809.728254052   0.000000000000
 -1809.722724645   0.000000000000
 -1809.701368462   0.000000000000
 -1809.397606367   0.000000000000
 -1809.392285978   0.000000000000
 -1809.385306514   0.000000000000
 -1809.358756629   0.000000000000
 -1809.339703765   0.000000000000
 -1809.312892386   0.000000000000
   CI-PROBLEM SOLVED
   DENSITIES MADE
CI-ITERATION   0: 
 -1809.671124295   0.000000000000 (    0.00)
 -1809.664836675   0.000000000000
 -1809.660322472   0.000000000000
 -1809.652282064   0.000000000000
 -1809.647065656   0.000000000000
 -1809.642580263   0.000000000000
 -1809.637731124   0.000000000000
 -1809.635426202   0.000000000000
 -1809.634176638   0.000000000000
 -1809.629829667   0.000000000000
 -1809.626063457   0.000000000000
 -1809.620424782   0.000000000000
 -1809.615890921   0.000000000000
 -1809.614535964   0.000000000000
 -1809.611590171   0.000000000000
 -1809.604070019   0.000000000000
 -1809.526501565   0.000000000000
 -1809.510038145   0.000000000000
 -1809.503797706   0.000000000000
 -1809.501488670   0.000000000000
 -1809.392311556   0.000000000000
 -1809.375540455   0.000000000000
 -1809.374861191   0.000000000000
 -1809.341582224   0.000000000000
 -1809.327177093   0.000000000000
 -1809.321971388   0.000000000000
 -1809.319422135   0.000000000000
 -1809.309112131   0.000000000000
 -1809.307463418   0.000000000000
 -1809.299819807   0.000000000000
 -1809.294920550   0.000000000000
 -1809.282745164   0.000000000000
 -1809.281070807   0.000000000000
 -1809.277217335   0.000000000000
 -1809.276864445   0.000000000000
 -1809.166833224   0.000000000000
 -1808.320832357   0.000000000000
 -1808.293918174   0.000000000000
 -1808.286984939   0.000000000000
 -1808.271750775   0.000000000000
   CI-PROBLEM SOLVED
   DENSITIES MADE
   E(CAS)= -1809.433328286 Eh DE=   -2.785371e+00
   --- Energy gap subspaces: Ext-Act = 0.326   Act-Int = -0.031
   --- current l-shift: Up(Ext-Act) = 1.01   Dn(Act-Int) = 1.36
   N(occ)=  1.40000 1.40000 1.40000 1.40000 1.40000
   ||g|| =     6.209681e+01 Max(G)=    5.620815e+01 Rot=553,0
   --- Option=FreezeIE: ||g|| =     62.090266850 
                              = 99.99% 
                        Damping (0.029) elements outside Int-Ext
   --- Orbital Update [   SuperCI]
   SUPERCI-ITER   0: DE=    -0.076602545 <r|r>=      0.000085582
   SUPERCI-ITER   1: DE=    -0.000060684 <r|r>=      0.006613760
   Warning: Orthogonalization failed (-1e-16)! Terminating Iterations.
   Warning: Super-CI convergence failure - keeping first order |SX> wavefunction
   <Psi(SX)|Psi(SX)>=      1.000000000 DE(SX)=-0.076663230
   Largest coefficient in the normalized |SX> wavefunction= 0.022379826
   --- Forming Natural Orbitals

MACRO-ITERATION   4: 
   --- Canonicalize Internal Space
   --- Canonicalize External Space
   --- Inactive Energy E0 = -1789.21639497 Eh
CI-ITERATION   0: 
 -1810.002614819   0.000000000000 (    0.00)
 -1809.985334562   0.000000000000
 -1809.980358325   0.000000000000
 -1809.962090716   0.000000000000
 -1809.703647517   0.000000000000
 -1809.698736155   0.000000000000
 -1809.692707496   0.000000000000
 -1809.667829257   0.000000000000
 -1809.647541058   0.000000000000
 -1809.621807339   0.000000000000
   CI-PROBLEM SOLVED
   DENSITIES MADE
CI-ITERATION   0: 
 -1809.929732567   0.000000000000 (    0.00)
 -1809.924009031   0.000000000000
 -1809.919584922   0.000000000000
 -1809.910878230   0.000000000000
 -1809.905452726   0.000000000000
 -1809.902730429   0.000000000000
 -1809.895051548   0.000000000000
 -1809.894999440   0.000000000000
 -1809.892263672   0.000000000000
 -1809.888838704   0.000000000000
 -1809.883800276   0.000000000000
 -1809.881100689   0.000000000000
 -1809.875344642   0.000000000000
 -1809.873488554   0.000000000000
 -1809.870326283   0.000000000000
 -1809.864622396   0.000000000000
 -1809.787962203   0.000000000000
 -1809.768435042   0.000000000000
 -1809.763921209   0.000000000000
 -1809.763370508   0.000000000000
 -1809.696902697   0.000000000000
 -1809.680125086   0.000000000000
 -1809.677509267   0.000000000000
 -1809.646618979   0.000000000000
 -1809.633188886   0.000000000000
 -1809.627725133   0.000000000000
 -1809.625318145   0.000000000000
 -1809.616256554   0.000000000000
 -1809.613078757   0.000000000000
 -1809.603923047   0.000000000000
 -1809.601790348   0.000000000000
 -1809.589243682   0.000000000000
 -1809.588720617   0.000000000000
 -1809.585166947   0.000000000000
 -1809.583890653   0.000000000000
 -1809.473945750   0.000000000000
 -1808.677924933   0.000000000000
 -1808.654040723   0.000000000000
 -1808.647807946   0.000000000000
 -1808.632256039   0.000000000000
   CI-PROBLEM SOLVED
   DENSITIES MADE
   E(CAS)= -1809.721275203 Eh DE=   -2.879469e-01
   --- Energy gap subspaces: Ext-Act = 0.348   Act-Int = 0.060
   --- current l-shift: Up(Ext-Act) = 0.65   Dn(Act-Int) = 0.94
   N(occ)=  1.40000 1.40000 1.40000 1.40000 1.40000
   ||g|| =     1.852345e+01 Max(G)=   -1.676233e+01 Rot=553,0
   --- Option=FreezeIE: ||g|| =     18.503483119 
                              = 99.89% 
                        Damping (0.029) elements outside Int-Ext
   --- Orbital Update [   SuperCI]
   SUPERCI-ITER   0: DE=    -0.008042998 <r|r>=      0.000003994
   SUPERCI-ITER   1: DE=    -0.000003664 <r|r>=      0.000144245
   Warning: Orthogonalization failed (-4e-16)! Terminating Iterations.
   Warning: Super-CI convergence failure - keeping first order |SX> wavefunction
   <Psi(SX)|Psi(SX)>=      1.000000000 DE(SX)=-0.008046662
   Largest coefficient in the normalized |SX> wavefunction= 0.011913539
   --- Forming Natural Orbitals

MACRO-ITERATION   5: 
   --- Canonicalize Internal Space
   --- Canonicalize External Space
   --- Inactive Energy E0 = -1789.20587508 Eh
CI-ITERATION   0: 
 -1810.028810296   0.000000000000 (    0.00)
 -1810.011152251   0.000000000000
 -1810.006260703   0.000000000000
 -1809.988796491   0.000000000000
 -1809.739062558   0.000000000000
 -1809.734672475   0.000000000000
 -1809.728740319   0.000000000000
 -1809.704491846   0.000000000000
 -1809.683598548   0.000000000000
 -1809.658009786   0.000000000000
   CI-PROBLEM SOLVED
   DENSITIES MADE
CI-ITERATION   0: 
 -1809.956056429   0.000000000000 (    0.01)
 -1809.950465517   0.000000000000
 -1809.946023481   0.000000000000
 -1809.937214016   0.000000000000
 -1809.931749533   0.000000000000
 -1809.929355354   0.000000000000
 -1809.921710481   0.000000000000
 -1809.920965218   0.000000000000
 -1809.918103016   0.000000000000
 -1809.915139873   0.000000000000
 -1809.909768316   0.000000000000
 -1809.907915021   0.000000000000
 -1809.901589242   0.000000000000
 -1809.899673430   0.000000000000
 -1809.896498931   0.000000000000
 -1809.891255022   0.000000000000
 -1809.814894267   0.000000000000
 -1809.794760915   0.000000000000
 -1809.790572409   0.000000000000
 -1809.790299758   0.000000000000
 -1809.731962148   0.000000000000
 -1809.715367810   0.000000000000
 -1809.712485633   0.000000000000
 -1809.682248169   0.000000000000
 -1809.668978515   0.000000000000
 -1809.663169569   0.000000000000
 -1809.660834841   0.000000000000
 -1809.652197004   0.000000000000
 -1809.648624901   0.000000000000
 -1809.639196242   0.000000000000
 -1809.638035612   0.000000000000
 -1809.625180430   0.000000000000
 -1809.624269106   0.000000000000
 -1809.621081996   0.000000000000
 -1809.619900570   0.000000000000
 -1809.509854937   0.000000000000
 -1808.723662324   0.000000000000
 -1808.701484094   0.000000000000
 -1808.694435635   0.000000000000
 -1808.679047831   0.000000000000
   CI-PROBLEM SOLVED
   DENSITIES MADE
   E(CAS)= -1809.753380109 Eh DE=   -3.210491e-02
   --- Energy gap subspaces: Ext-Act = 0.356   Act-Int = 0.083
   --- current l-shift: Up(Ext-Act) = 0.64   Dn(Act-Int) = 0.92
   N(occ)=  1.40000 1.40000 1.40000 1.40000 1.40000
   ||g|| =     5.560453e+00 Max(G)=    4.962658e+00 Rot=553,0
   --- Option=FreezeIE: ||g|| =      5.496260487 
                              = 98.85% 
                        Damping (0.029) elements outside Int-Ext
   --- Orbital Update [   SuperCI]
   SUPERCI-ITER   0: DE=    -0.002464736 <r|r>=      0.000000527
   SUPERCI-ITER   1: DE=    -0.000000591 <r|r>=      0.000001983
   Warning: Orthogonalization failed (-3e-17)! Terminating Iterations.
   Warning: Super-CI convergence failure - keeping first order |SX> wavefunction
   <Psi(SX)|Psi(SX)>=      1.000000000 DE(SX)=-0.002465328
   Largest coefficient in the normalized |SX> wavefunction= 0.008035296
   --- Forming Natural Orbitals

MACRO-ITERATION   6: 
   --- Canonicalize Internal Space
   --- Canonicalize External Space
   --- Inactive Energy E0 = -1789.15568142 Eh
CI-ITERATION   0: 
 -1810.031775453   0.000000000000 (    0.00)
 -1810.013780457   0.000000000000
 -1810.009242614   0.000000000000
 -1809.992783488   0.000000000000
 -1809.754020076   0.000000000000
 -1809.749806243   0.000000000000
 -1809.744338828   0.000000000000
 -1809.720686476   0.000000000000
 -1809.699187052   0.000000000000
 -1809.674137642   0.000000000000
   CI-PROBLEM SOLVED
   DENSITIES MADE
CI-ITERATION   0: 
 -1809.959502673   0.000000000000 (    0.00)
 -1809.953911135   0.000000000000
 -1809.949678095   0.000000000000
 -1809.940475304   0.000000000000
 -1809.934943618   0.000000000000
 -1809.933083152   0.000000000000
 -1809.925689159   0.000000000000
 -1809.923764958   0.000000000000
 -1809.920731388   0.000000000000
 -1809.918616035   0.000000000000
 -1809.912632673   0.000000000000
 -1809.911788560   0.000000000000
 -1809.905057570   0.000000000000
 -1809.902972383   0.000000000000
 -1809.899795868   0.000000000000
 -1809.894978526   0.000000000000
 -1809.819132124   0.000000000000
 -1809.798171377   0.000000000000
 -1809.794565665   0.000000000000
 -1809.794514784   0.000000000000
 -1809.746394335   0.000000000000
 -1809.729919512   0.000000000000
 -1809.726418869   0.000000000000
 -1809.697009473   0.000000000000
 -1809.684161472   0.000000000000
 -1809.678081425   0.000000000000
 -1809.676021767   0.000000000000
 -1809.667636003   0.000000000000
 -1809.663446661   0.000000000000
 -1809.653715758   0.000000000000
 -1809.653252837   0.000000000000
 -1809.640816405   0.000000000000
 -1809.639239329   0.000000000000
 -1809.636789823   0.000000000000
 -1809.635283322   0.000000000000
 -1809.525239332   0.000000000000
 -1808.751350096   0.000000000000
 -1808.730704277   0.000000000000
 -1808.723602708   0.000000000000
 -1808.708321612   0.000000000000
   CI-PROBLEM SOLVED
   DENSITIES MADE
   E(CAS)= -1809.764005542 Eh DE=   -1.062543e-02
   --- Energy gap subspaces: Ext-Act = 0.371   Act-Int = 0.084
   --- current l-shift: Up(Ext-Act) = 0.63   Dn(Act-Int) = 0.92
   N(occ)=  1.40000 1.40000 1.40000 1.40000 1.40000
   ||g|| =     1.818323e+00 Max(G)=   -1.467887e+00 Rot=553,0
   --- Orbital Update [   SuperCI]
   SUPERCI-ITER   0: DE=    -0.008537737 <r|r>=      0.000090979
   SUPERCI-ITER   1: DE=    -0.000052918 <r|r>=      0.000019886
   Warning: Orthogonalization failed (-7e-17)! Terminating Iterations.
   <Psi(SX)|Psi(SX)>=      1.000000000 DE(SX)=-0.008590655
   Largest coefficient in the normalized |SX> wavefunction= 0.060525862
   --- Forming Natural Orbitals

MACRO-ITERATION   7: 
   --- Canonicalize Internal Space
   --- Canonicalize External Space
   --- Inactive Energy E0 = -1789.35562079 Eh
CI-ITERATION   0: 
 -1810.012741443   0.000000000000 (    0.00)
 -1810.002174123   0.000000000000
 -1809.993201704   0.000000000000
 -1809.972127094   0.000000000000
 -1809.712182304   0.000000000000
 -1809.687149144   0.000000000000
 -1809.685680469   0.000000000000
 -1809.644410631   0.000000000000
 -1809.638843642   0.000000000000
 -1809.619232707   0.000000000000
   CI-PROBLEM SOLVED
   DENSITIES MADE
CI-ITERATION   0: 
 -1809.946261213   0.000000000000 (    0.00)
 -1809.935913131   0.000000000000
 -1809.934909647   0.000000000000
 -1809.922240391   0.000000000000
 -1809.916364767   0.000000000000
 -1809.912694556   0.000000000000
 -1809.909485740   0.000000000000
 -1809.906819753   0.000000000000
 -1809.905495551   0.000000000000
 -1809.903015490   0.000000000000
 -1809.898016957   0.000000000000
 -1809.890577957   0.000000000000
 -1809.888836213   0.000000000000
 -1809.886848786   0.000000000000
 -1809.883661645   0.000000000000
 -1809.874837465   0.000000000000
 -1809.800442474   0.000000000000
 -1809.781012137   0.000000000000
 -1809.778016970   0.000000000000
 -1809.777254820   0.000000000000
 -1809.704243491   0.000000000000
 -1809.676107442   0.000000000000
 -1809.666180784   0.000000000000
 -1809.633141143   0.000000000000
 -1809.632376213   0.000000000000
 -1809.623447545   0.000000000000
 -1809.621752638   0.000000000000
 -1809.608070635   0.000000000000
 -1809.606455260   0.000000000000
 -1809.597169797   0.000000000000
 -1809.589931435   0.000000000000
 -1809.583585892   0.000000000000
 -1809.580533635   0.000000000000
 -1809.570015056   0.000000000000
 -1809.564284859   0.000000000000
[...]
 3 106   47357.7    211.2   0.00000   0.00007   0.00000   0.00000000004123   0.92389   0.07593   0.00018
 3 107   47357.7    211.2   0.00000   0.00085   0.00000   0.00000000005439   0.25760   0.74227   0.00013
 3 108   47681.2    209.7   0.00000   0.00000   0.00000   0.00000000000664   0.99737   0.00173   0.00090
 3 109   47681.2    209.7   0.00000   0.00000   0.00000   0.00000000003844   0.99934   0.00000   0.00065
 3 110   66763.1    149.8   0.00000   0.00000   0.00000   0.00000000000430   0.99332   0.00548   0.00120
 3 111   66763.1    149.8   0.00000   0.00000   0.00000   0.00000000000170   0.94862   0.04720   0.00418
 3 112   68271.9    146.5   0.00000   0.00000   0.00000   0.00000000000103   0.89272   0.09695   0.01034
 3 113   68271.9    146.5   0.00000   0.00000   0.00000   0.00000000000140   0.93496   0.05433   0.01071
 3 114   69299.1    144.3   0.00000   0.00000   0.00000   0.00000000000258   0.96049   0.02323   0.01628
 3 115   69299.1    144.3   0.00000   0.00000   0.00000   0.00000000000339   0.97166   0.01295   0.01539
 3 116   74374.1    134.5   0.00000   0.00000   0.00000   0.00000000001325   0.99047   0.00201   0.00752
 3 117   74374.1    134.5   0.00000   0.00000   0.00000   0.00000000002229   0.99385   0.00024   0.00591
 3 118   74893.6    133.5   0.00000   0.00001   0.00000   0.00000000003396   0.99216   0.00739   0.00045
 3 119   74893.6    133.5   0.00000   0.00003   0.00000   0.00000000001400   0.88281   0.11642   0.00077

Done

                 =============================
                 AB INITIO LIGAND FIELD THEORY
                       d7 configuration
                          2 CI blocks
                         MOs 43 to 47
                 =============================

Metal/Atom center is atom 0
orbital phases =   1.0   1.0   1.0   1.0   1.0 
Metal/Atom d-orbital parts of active orbitals
Shell 15
             43        44        45        46        47
dz2     :  0.616090  0.000050  0.000134 -0.001729 -0.000254
dxz     :  0.004711  0.617433  0.000419  0.000943  0.000685
dyz     :  0.001247 -0.000053  0.616520 -0.000111  0.000450
dx2y2   :  0.005043 -0.007721 -0.002143  0.611862  0.000327
dxy     :  0.002010 -0.000868  0.000301 -0.004160  0.617624
Shell 16
             43        44        45        46        47
dz2     :  0.413619 -0.000450 -0.000100  0.000329  0.000301
dxz     :  0.002647  0.412744 -0.000010  0.000063  0.000437
dyz     :  0.000702 -0.000381  0.414901  0.000134 -0.000474
dx2y2   :  0.004945 -0.005893 -0.001142  0.409496  0.000254
dxy     :  0.001781 -0.000601 -0.000537 -0.002675  0.412897
Shell 17
             43        44        45        46        47
dz2     :  0.211225  0.000375 -0.000401  0.004074 -0.000834
dxz     :  0.002263  0.209989 -0.001521 -0.002051 -0.004191
dyz     : -0.000168 -0.001509  0.213969  0.000358  0.000156
dx2y2   :  0.006140 -0.004163 -0.000604  0.205229 -0.001152
dxy     :  0.000119 -0.004711 -0.000034 -0.003112  0.216373
Shell 20
             43        44        45        46        47
dz2     : -0.001575  0.006875  0.000010  0.015646  0.003225
dxz     :  0.006368 -0.004132 -0.001488 -0.013530 -0.005787
dyz     : -0.000612 -0.001166  0.006806  0.000436 -0.000337
dx2y2   :  0.014495 -0.013354 -0.000700 -0.019433 -0.007014
dxy     :  0.003214 -0.005677 -0.000779 -0.006827  0.004168

Adjusting phases of one-electron integrals               ... done
Adjusting phases of two-electron integrals               ... done


-----------------------------------------------------------------
Computing F0s from 2-electron integrals                  ... done 
-----------------------------------------------------------------
F0   =  0.903975025 a.u. =    24.598 eV =  198399.6 cm**-1
-----------------------------------------------------------------

Preparing for fit                                        ... done
Making fit matrices                                      ... done
Calculating ab initio Hamiltonian matrices               ... 
Calculating fit matrices                                 ... done
Fitting                                                  ... done

------------------------------
AILFT MATRIX ELEMENTS (CASSCF)
--------------------------------

Ligand field one-electron matrix VLFT (a.u.) : 
Orbital          dz2        dxz        dyz        dx2-y2     dxy
  dz2         -6.572629  -0.000053   0.000973  -0.013476  -0.002219 
  dxz         -0.000053  -6.563094   0.002968   0.007903   0.005242 
  dyz          0.000973   0.002968  -6.580648  -0.000998   0.003346 
  dx2-y2      -0.013476   0.007903  -0.000998  -6.558685   0.002840 
  dxy         -0.002219   0.005242   0.003346   0.002840  -6.570506 

-------------------------------------------------
Slater-Condon Parameters (electronic repulsion) : 
-------------------------------------------------
F0dd(from 2el Ints)     =  0.903975025 a.u. =    24.598 eV =  198399.6 cm**-1 (fixed)
F2dd                    =  0.412389852 a.u. =    11.222 eV =   90509.1 cm**-1
F4dd                    =  0.258741342 a.u. =     7.041 eV =   56787.2 cm**-1
-------------------
Racah Parameters : 
-------------------
A(F0dd from 2el Ints)   =  0.875225987 a.u. =    23.816 eV =  192089.9 cm**-1
B                       =  0.005482544 a.u. =     0.149 eV =    1203.3 cm**-1
C                       =  0.020535027 a.u. =     0.559 eV =    4506.9 cm**-1
C/B                     =  3.746
-------------------------------------------------------------------------------

-----------------------------------------
The ligand field one electron eigenfunctions:
-----------------------------------------
Orbital    Energy (eV)  Energy(cm-1)      dz2        dxz        dyz        dx2-y2     dxy
    1          0.000        0.0        -0.419186   0.240739  -0.782010  -0.371977   0.128142 
    2          0.003       23.6         0.677281  -0.146706  -0.548918   0.386400   0.262966 
    3          0.264     2131.9        -0.211943  -0.435108   0.176215  -0.120885   0.848585 
    4          0.519     4187.2        -0.389731  -0.736047  -0.235475   0.327233  -0.379230 
    5          0.976     7869.3         0.410808  -0.435245  -0.025463  -0.768527  -0.224759 
Ligand field orbitals were stored in rho.casscf.lft.gbw

Calculating ligand field Hamiltonian matrices          ... done
Diagonalizing and fitting the ligand field Hamiltonian ... done
Calculating statistical parameters                     ... done

Reference energy AI-LFT =    -27.564949805 au
Reference energy AI     =    -27.564393866 au

------------------------------------------------
COMPARISON OF AB INITIO AND LIGAND FIELD RESULTS
------------------------------------------------

Block   1
---------
   AI-Root   0: E(AI)=    0.000 eV -> LF-Root   0:     0.000 eV    S= 0.917 Delta=    0.000 eV
   AI-Root   1: E(AI)=    0.001 eV -> LF-Root   1:     0.002 eV    S= 0.917 Delta=   -0.001 eV
   AI-Root   2: E(AI)=    0.221 eV -> LF-Root   2:     0.213 eV    S= 1.000 Delta=    0.008 eV
   AI-Root   3: E(AI)=    0.357 eV -> LF-Root   3:     0.353 eV    S= 0.967 Delta=    0.004 eV
   AI-Root   4: E(AI)=    0.369 eV -> LF-Root   4:     0.370 eV    S= 0.967 Delta=   -0.001 eV
   AI-Root   5: E(AI)=    0.562 eV -> LF-Root   5:     0.615 eV    S= 0.998 Delta=   -0.054 eV
   AI-Root   6: E(AI)=    0.564 eV -> LF-Root   6:     0.617 eV    S= 0.998 Delta=   -0.053 eV
   AI-Root   7: E(AI)=    2.124 eV -> LF-Root   7:     2.091 eV    S= 1.000 Delta=    0.033 eV
   AI-Root   8: E(AI)=    2.782 eV -> LF-Root   8:     2.828 eV    S= 1.000 Delta=   -0.046 eV
   AI-Root   9: E(AI)=    3.027 eV -> LF-Root   9:     3.067 eV    S= 1.000 Delta=   -0.040 eV
   (Dropping RMS error for the reference energy)
   RMS error for this block =     0.034 eV =     275.6 cm**-1 

Block   2
---------
   AI-Root   0: E(AI)=    2.177 eV -> LF-Root   0:     2.202 eV    S= 0.727 Delta=   -0.025 eV
   AI-Root   1: E(AI)=    2.177 eV -> LF-Root   1:     2.203 eV    S= 0.727 Delta=   -0.026 eV
   AI-Root   2: E(AI)=    2.328 eV -> LF-Root   2:     2.346 eV    S= 0.996 Delta=   -0.017 eV
   AI-Root   3: E(AI)=    2.372 eV -> LF-Root   3:     2.396 eV    S= 0.989 Delta=   -0.023 eV
   AI-Root   4: E(AI)=    2.467 eV -> LF-Root   4:     2.511 eV    S= 0.990 Delta=   -0.044 eV
   AI-Root   5: E(AI)=    2.486 eV -> LF-Root   5:     2.522 eV    S= 0.988 Delta=   -0.036 eV
   AI-Root   6: E(AI)=    2.491 eV -> LF-Root   6:     2.487 eV    S= 0.994 Delta=    0.004 eV
   AI-Root   7: E(AI)=    2.797 eV -> LF-Root   7:     2.791 eV    S= 0.991 Delta=    0.006 eV
   AI-Root   8: E(AI)=    2.798 eV -> LF-Root   8:     2.791 eV    S= 0.991 Delta=    0.006 eV
   AI-Root   9: E(AI)=    2.833 eV -> LF-Root   9:     2.870 eV    S= 0.894 Delta=   -0.038 eV
   AI-Root  10: E(AI)=    2.838 eV -> LF-Root  10:     2.859 eV    S= 0.895 Delta=   -0.021 eV
   AI-Root  11: E(AI)=    2.874 eV -> LF-Root  11:     2.920 eV    S= 0.999 Delta=   -0.046 eV
   AI-Root  12: E(AI)=    3.182 eV -> LF-Root  12:     3.179 eV    S= 0.997 Delta=    0.004 eV
   AI-Root  13: E(AI)=    3.199 eV -> LF-Root  13:     3.196 eV    S= 0.976 Delta=    0.003 eV
   AI-Root  14: E(AI)=    3.206 eV -> LF-Root  14:     3.204 eV    S= 0.975 Delta=    0.002 eV
   AI-Root  15: E(AI)=    3.267 eV -> LF-Root  15:     3.255 eV    S= 0.997 Delta=    0.012 eV
   AI-Root  16: E(AI)=    3.319 eV -> LF-Root  16:     3.307 eV    S= 0.997 Delta=    0.013 eV
   AI-Root  17: E(AI)=    3.408 eV -> LF-Root  17:     3.412 eV    S= 0.997 Delta=   -0.004 eV
   AI-Root  18: E(AI)=    3.424 eV -> LF-Root  18:     3.448 eV    S= 0.996 Delta=   -0.025 eV
   AI-Root  19: E(AI)=    3.451 eV -> LF-Root  19:     3.472 eV    S= 0.993 Delta=   -0.022 eV
   AI-Root  20: E(AI)=    3.531 eV -> LF-Root  20:     3.539 eV    S= 0.996 Delta=   -0.008 eV
   AI-Root  21: E(AI)=    3.546 eV -> LF-Root  21:     3.559 eV    S= 0.994 Delta=   -0.013 eV
   AI-Root  22: E(AI)=    3.621 eV -> LF-Root  22:     3.623 eV    S= 0.996 Delta=   -0.002 eV
   AI-Root  23: E(AI)=    3.737 eV -> LF-Root  23:     3.766 eV    S= 0.998 Delta=   -0.029 eV
   AI-Root  24: E(AI)=    3.817 eV -> LF-Root  24:     3.851 eV    S= 1.000 Delta=   -0.034 eV
   AI-Root  25: E(AI)=    3.818 eV -> LF-Root  25:     3.804 eV    S= 1.000 Delta=    0.014 eV
   AI-Root  26: E(AI)=    3.976 eV -> LF-Root  26:     4.020 eV    S= 0.931 Delta=   -0.044 eV
   AI-Root  27: E(AI)=    3.976 eV -> LF-Root  27:     4.020 eV    S= 0.931 Delta=   -0.044 eV
   AI-Root  28: E(AI)=    5.445 eV -> LF-Root  28:     5.466 eV    S= 1.000 Delta=   -0.021 eV
   AI-Root  29: E(AI)=    5.498 eV -> LF-Root  29:     5.523 eV    S= 1.000 Delta=   -0.025 eV
   AI-Root  30: E(AI)=    5.606 eV -> LF-Root  30:     5.635 eV    S= 1.000 Delta=   -0.029 eV
   AI-Root  31: E(AI)=    5.720 eV -> LF-Root  31:     5.735 eV    S= 1.000 Delta=   -0.015 eV
   AI-Root  32: E(AI)=    5.742 eV -> LF-Root  32:     5.759 eV    S= 1.000 Delta=   -0.017 eV
   AI-Root  33: E(AI)=    5.850 eV -> LF-Root  33:     5.874 eV    S= 0.991 Delta=   -0.023 eV
   AI-Root  34: E(AI)=    5.851 eV -> LF-Root  34:     5.874 eV    S= 0.991 Delta=   -0.023 eV
   AI-Root  35: E(AI)=    8.236 eV -> LF-Root  35:     8.201 eV    S= 1.000 Delta=    0.036 eV
   AI-Root  36: E(AI)=    8.428 eV -> LF-Root  36:     8.456 eV    S= 0.999 Delta=   -0.027 eV
   AI-Root  37: E(AI)=    8.545 eV -> LF-Root  37:     8.578 eV    S= 0.999 Delta=   -0.033 eV
   AI-Root  38: E(AI)=    9.208 eV -> LF-Root  38:     9.206 eV    S= 0.997 Delta=    0.003 eV
   AI-Root  39: E(AI)=    9.216 eV -> LF-Root  39:     9.213 eV    S= 0.997 Delta=    0.004 eV
   RMS error for this block =     0.024 eV =     196.5 cm**-1 

Total RMS error g=     0.026 eV =     213.3 cm**-1
Note: Dropped RMS error for the reference energy.

Confidence intervals (95%) computed from the square root of the
diagonal elements of the covariance matrix:
H(dz2   ,dz2   )=  0.000135225 a.u. =     0.004 eV =      29.7 cm**-1
H(dxz   ,dz2   )=  0.000114402 a.u. =     0.003 eV =      25.1 cm**-1
H(dxz   ,dxz   )=  0.000135225 a.u. =     0.004 eV =      29.7 cm**-1
H(dyz   ,dz2   )=  0.000114402 a.u. =     0.003 eV =      25.1 cm**-1
H(dyz   ,dxz   )=  0.000114402 a.u. =     0.003 eV =      25.1 cm**-1
H(dyz   ,dyz   )=  0.000135225 a.u. =     0.004 eV =      29.7 cm**-1
H(dx2-y2,dz2   )=  0.000114402 a.u. =     0.003 eV =      25.1 cm**-1
H(dx2-y2,dxz   )=  0.000114402 a.u. =     0.003 eV =      25.1 cm**-1
H(dx2-y2,dyz   )=  0.000114402 a.u. =     0.003 eV =      25.1 cm**-1
H(dx2-y2,dx2-y2)=  0.000135225 a.u. =     0.004 eV =      29.7 cm**-1
H(dxy   ,dz2   )=  0.000114402 a.u. =     0.003 eV =      25.1 cm**-1
H(dxy   ,dxz   )=  0.000114402 a.u. =     0.003 eV =      25.1 cm**-1
H(dxy   ,dyz   )=  0.000114402 a.u. =     0.003 eV =      25.1 cm**-1
H(dxy   ,dx2-y2)=  0.000114402 a.u. =     0.003 eV =      25.1 cm**-1
H(dxy   ,dxy   )=  0.000135225 a.u. =     0.004 eV =      29.7 cm**-1
F2dd            =  0.000485616 a.u. =     0.013 eV =     106.6 cm**-1
F4dd            =  0.000704316 a.u. =     0.019 eV =     154.6 cm**-1
Pearson's correlation coefficient =    1.000 (should be close to 1)

----------------------------------------------
SPIN ORBIT COUPLING (based on CASSCF orbitals)
----------------------------------------------

AI-SOC-X integrals (cm-1)
                  0          1          2          3          4    
      0       0.000000  -1.934222 901.918763  -1.354121   5.086196
      1       1.934222  -0.000000  -6.065232  -3.776225 520.016831
      2     -901.918763   6.065232  -0.000000 -512.087587   0.552474
      3       1.354121   3.776225 512.087587  -0.000000   0.598373
      4      -5.086196 -520.016831  -0.552474  -0.598373  -0.000000
AI-SOC-Y integrals (cm-1)
                  0          1          2          3          4    
      0      -0.000000 -892.928524   1.400007  -4.281924  -1.344411
      1     892.928524   0.000000   1.099804 -514.888649   0.038988
      2      -1.400007  -1.099804   0.000000   3.837227 -519.839680
      3       4.281924 514.888649  -3.837227  -0.000000   0.166613
      4       1.344411  -0.038988 519.839680  -0.166613  -0.000000
AI-SOC-Z integrals (cm-1)
                  0          1          2          3          4    
      0       0.000000   0.860055  -4.565954   3.623253  -9.860171
      1      -0.860055  -0.000000 -519.216152  -2.251809  13.898245
      2       4.565954 519.216152   0.000000   0.551624   4.112685
      3      -3.623253   2.251809  -0.551624  -0.000000 -1029.203764
      4       9.860171 -13.898245  -4.112685 1029.203764   0.000000

Fit to the SOC matrix elements
a = 15.000000
b =     0.961 eV =    7753.2 cm**-1
SOC constant zeta =     0.064 eV =     516.9 cm**-1


LF-SOC-X integrals (cm-1)
                  0          1          2          3          4    
      0       0.000000  -0.000000 895.265091  -0.000000  -0.000000
      1       0.000000   0.000000  -0.000000  -0.000000 516.881541
      2     -895.265091   0.000000   0.000000 -516.881541  -0.000000
      3       0.000000   0.000000 516.881541   0.000000  -0.000000
      4       0.000000 -516.881541   0.000000   0.000000   0.000000
LF-SOC-Y integrals (cm-1)
                  0          1          2          3          4    
      0       0.000000 -895.265091  -0.000000  -0.000000  -0.000000
      1     895.265091   0.000000  -0.000000 -516.881541  -0.000000
      2       0.000000   0.000000   0.000000  -0.000000 -516.881541
      3       0.000000 516.881541   0.000000   0.000000  -0.000000
      4       0.000000   0.000000 516.881541   0.000000   0.000000
LF-SOC-Z integrals (cm-1)
                  0          1          2          3          4    
      0       0.000000  -0.000000  -0.000000  -0.000000  -0.000000
      1       0.000000   0.000000 -516.881541  -0.000000  -0.000000
      2       0.000000 516.881541   0.000000  -0.000000  -0.000000
      3       0.000000   0.000000   0.000000   0.000000 -1033.763082
      4       0.000000   0.000000   0.000000 1033.763082   0.000000

RMS error of nonzero matrix elements =    4.5 cm**-1


-----SOC-CONSTANTS-----
---All Values in cm-1---
ZETA_D = 516.88 
------------------------




---AILFT COMPLETED SUCCESFULLY!---

--------------
CASSCF TIMINGS
--------------

Total time                       ...      874.8 sec
Sum of individual times          ...      867.2 sec ( 99.1%)

Calculation of AO operators
   F(Core) operator              ...      355.8 sec ( 40.7%)
   G(Act) operator               ...      340.0 sec ( 38.9%)
   J(AO) operators               ...        0.0 sec (  0.0%)
Calculation of MO transformed quantities
   J(MO) operators               ...       60.4 sec (  6.9%)
   (pq|rs) integrals             ...        0.0 sec (  0.0%)
   AO->MO one electron integrals ...        2.1 sec (  0.2%)
Configuration interaction steps
   CI-setup phase                ...        0.0 sec (  0.0%)
   CI-solution phase             ...        1.4 sec (  0.2%)
   Generation of densities       ...        0.1 sec (  0.0%)
Orbital improvement steps
   Orbital gradient              ...        0.7 sec (  0.1%)
   O(1) converger                ...       12.2 sec (  1.4%)
Properties                       ...       59.8 sec (  6.8%)
   SOC integral calculation      ...       34.5 sec (  3.9%)
   SSC RMEs (incl. integrals)    ...        0.0 sec (  0.0%)
   SOC RMEs                      ...        0.1 sec (  0.0%)

Maximum memory used throughout the entire CASSCF-calculation: 533.0 MB

-------------------------   --------------------
FINAL SINGLE POINT ENERGY     -1810.031985707293
-------------------------   --------------------


                            ***************************************
                            *     ORCA property calculations      *
                            ***************************************

                                    ---------------------
                                    Active property flags
                                    ---------------------
   (+) Dipole Moment


------------------------------------------------------------------------------
                       ORCA ELECTRIC PROPERTIES CALCULATION
------------------------------------------------------------------------------

Dipole Moment Calculation                       ... on
Quadrupole Moment Calculation                   ... off
Polarizability Calculation                      ... off
GBWName                                         ... rho.gbw
Electron density                                ... rho.scfp
The origin for moment calculation is the CENTER OF MASS  = (-0.002780, -0.441896  0.227268)

-------------
DIPOLE MOMENT
-------------
                                X             Y             Z
Electronic contribution:     -0.02784      -4.26487       2.19489
Nuclear contribution   :      0.03850       5.44155      -2.80572
                        -----------------------------------------
Total Dipole Moment    :      0.01066       1.17668      -0.61083
                        -----------------------------------------
Magnitude (a.u.)       :      1.32583
Magnitude (Debye)      :      3.36998



--------------------
Rotational spectrum 
--------------------
 
Rotational constants in cm-1:     0.222559     0.008379     0.008229 
Rotational constants in MHz :  6672.138085   251.197746   246.708927 

 Dipole components along the rotational axes: 
x,y,z [a.u.] :    -0.002956    -1.325822    -0.001000 
x,y,z [Debye]:    -0.007515    -3.369972    -0.002542 

 

Timings for individual modules:

Sum of individual times         ...      900.287 sec (=  15.005 min)
GTO integral calculation        ...        5.251 sec (=   0.088 min)   0.6 %
Relativistic integrals          ...        4.922 sec (=   0.082 min)   0.5 %
SCF iterations                  ...        6.499 sec (=   0.108 min)   0.7 %
CASSCF iterations               ...      883.615 sec (=  14.727 min)  98.1 %
                             ****ORCA TERMINATED NORMALLY****
TOTAL RUN TIME: 0 days 0 hours 15 minutes 5 seconds 911 msec
