
                                 *****************
                                 * O   R   C   A *
                                 *****************

                                            #,                                       
                                            ###                                      
                                            ####                                     
                                            #####                                    
                                            ######                                   
                                           ########,                                 
                                     ,,################,,,,,                         
                               ,,#################################,,                 
                          ,,##########################################,,             
                       ,#########################################, ''#####,          
                    ,#############################################,,   '####,        
                  ,##################################################,,,,####,       
                ,###########''''           ''''###############################       
              ,#####''   ,,,,##########,,,,          '''####'''          '####       
            ,##' ,,,,###########################,,,                        '##       
           ' ,,###''''                  '''############,,,                           
         ,,##''                                '''############,,,,        ,,,,,,###''
      ,#''                                            '''#######################'''  
     '                                                          ''''####''''         
             ,#######,   #######,   ,#######,      ##                                
            ,#'     '#,  ##    ##  ,#'     '#,    #''#        ######   ,####,        
            ##       ##  ##   ,#'  ##            #'  '#       #        #'  '#        
            ##       ##  #######   ##           ,######,      #####,   #    #        
            '#,     ,#'  ##    ##  '#,     ,#' ,#      #,         ##   #,  ,#        
             '#######'   ##     ##  '#######'  #'      '#     #####' # '####'        



                  #######################################################
                  #                        -***-                        #
                  #          Department of theory and spectroscopy      #
                  #    Directorship and core code : Frank Neese         #
                  #        Max Planck Institute fuer Kohlenforschung    #
                  #                Kaiser Wilhelm Platz 1               #
                  #                 D-45470 Muelheim/Ruhr               #
                  #                      Germany                        #
                  #                                                     #
                  #                  All rights reserved                #
                  #                        -***-                        #
                  #######################################################


                         Program Version 5.0.4 -  RELEASE  -


 With contributions from (in alphabetic order):
   Daniel Aravena         : Magnetic Suceptibility
   Michael Atanasov       : Ab Initio Ligand Field Theory (pilot matlab implementation)
   Alexander A. Auer      : GIAO ZORA, VPT2 properties, NMR spectrum
   Ute Becker             : Parallelization
   Giovanni Bistoni       : ED, misc. LED, open-shell LED, HFLD
   Martin Brehm           : Molecular dynamics
   Dmytro Bykov           : SCF Hessian
   Vijay G. Chilkuri      : MRCI spin determinant printing, contributions to CSF-ICE
   Dipayan Datta          : RHF DLPNO-CCSD density
   Achintya Kumar Dutta   : EOM-CC, STEOM-CC
   Dmitry Ganyushin       : Spin-Orbit,Spin-Spin,Magnetic field MRCI
   Miquel Garcia          : C-PCM and meta-GGA Hessian, CC/C-PCM, Gaussian charge scheme
   Yang Guo               : DLPNO-NEVPT2, F12-NEVPT2, CIM, IAO-localization
   Andreas Hansen         : Spin unrestricted coupled pair/coupled cluster methods
   Benjamin Helmich-Paris : MC-RPA, TRAH-SCF, COSX integrals
   Lee Huntington         : MR-EOM, pCC
   Robert Izsak           : Overlap fitted RIJCOSX, COSX-SCS-MP3, EOM
   Marcus Kettner         : VPT2
   Christian Kollmar      : KDIIS, OOCD, Brueckner-CCSD(T), CCSD density, CASPT2, CASPT2-K
   Simone Kossmann        : Meta GGA functionals, TD-DFT gradient, OOMP2, MP2 Hessian
   Martin Krupicka        : Initial AUTO-CI
   Lucas Lang             : DCDCAS
   Marvin Lechner         : AUTO-CI (C++ implementation), FIC-MRCC
   Dagmar Lenk            : GEPOL surface, SMD
   Dimitrios Liakos       : Extrapolation schemes; Compound Job, initial MDCI parallelization
   Dimitrios Manganas     : Further ROCIS development; embedding schemes
   Dimitrios Pantazis     : SARC Basis sets
   Anastasios Papadopoulos: AUTO-CI, single reference methods and gradients
   Taras Petrenko         : DFT Hessian,TD-DFT gradient, ASA, ECA, R-Raman, ABS, FL, XAS/XES, NRVS
   Peter Pinski           : DLPNO-MP2, DLPNO-MP2 Gradient
   Christoph Reimann      : Effective Core Potentials
   Marius Retegan         : Local ZFS, SOC
   Christoph Riplinger    : Optimizer, TS searches, QM/MM, DLPNO-CCSD(T), (RO)-DLPNO pert. Triples
   Tobias Risthaus        : Range-separated hybrids, TD-DFT gradient, RPA, STAB
   Michael Roemelt        : Original ROCIS implementation
   Masaaki Saitow         : Open-shell DLPNO-CCSD energy and density
   Barbara Sandhoefer     : DKH picture change effects
   Avijit Sen             : IP-ROCIS
   Kantharuban Sivalingam : CASSCF convergence, NEVPT2, FIC-MRCI
   Bernardo de Souza      : ESD, SOC TD-DFT
   Georgi Stoychev        : AutoAux, RI-MP2 NMR, DLPNO-MP2 response
   Willem Van den Heuvel  : Paramagnetic NMR
   Boris Wezisla          : Elementary symmetry handling
   Frank Wennmohs         : Technical directorship


 We gratefully acknowledge several colleagues who have allowed us to
 interface, adapt or use parts of their codes:
   Stefan Grimme, W. Hujo, H. Kruse, P. Pracht,  : VdW corrections, initial TS optimization,
                  C. Bannwarth, S. Ehlert          DFT functionals, gCP, sTDA/sTD-DF
   Ed Valeev, F. Pavosevic, A. Kumar             : LibInt (2-el integral package), F12 methods
   Garnet Chan, S. Sharma, J. Yang, R. Olivares  : DMRG
   Ulf Ekstrom                                   : XCFun DFT Library
   Mihaly Kallay                                 : mrcc  (arbitrary order and MRCC methods)
   Jiri Pittner, Ondrej Demel                    : Mk-CCSD
   Frank Weinhold                                : gennbo (NPA and NBO analysis)
   Christopher J. Cramer and Donald G. Truhlar   : smd solvation model
   Lars Goerigk                                  : TD-DFT with DH, B97 family of functionals
   V. Asgeirsson, H. Jonsson                     : NEB implementation
   FAccTs GmbH                                   : IRC, NEB, NEB-TS, DLPNO-Multilevel, CI-OPT
                                                   MM, QMMM, 2- and 3-layer-ONIOM, Crystal-QMMM,
                                                   LR-CPCM, SF, NACMEs, symmetry and pop. for TD-DFT,
                                                   nearIR, NL-DFT gradient (VV10), updates on ESD,
                                                   ML-optimized integration grids
   S Lehtola, MJT Oliveira, MAL Marques          : LibXC Library
   Liviu Ungur et al                             : ANISO software


 Your calculation uses the libint2 library for the computation of 2-el integrals
 For citations please refer to: http://libint.valeyev.net

 Your ORCA version has been built with support for libXC version: 5.1.0
 For citations please refer to: https://tddft.org/programs/libxc/

 This ORCA versions uses:
   CBLAS   interface :  Fast vector & matrix operations
   LAPACKE interface :  Fast linear algebra routines
   SCALAPACK package :  Parallel linear algebra routines
   Shared memory     :  Shared parallel matrices
   BLAS/LAPACK       :  OpenBLAS 0.3.15  USE64BITINT DYNAMIC_ARCH NO_AFFINITY Zen SINGLE_THREADED
        Core in use  :  Zen
   Copyright (c) 2011-2014, The OpenBLAS Project




***************************************
The coordinates will be read from file: geo.xyz
***************************************


================================================================================

----- Orbital basis set information -----
Your calculation utilizes the basis: DKH-def2-TZVPP
   Exponents from def2-TZVPP [F. Weigend and R. Ahlrichs, Phys. Chem. Chem. Phys. 7, 3297 (2005)],
   recontracted for DKH2 by D. A. Pantazis.

----- AuxJ basis set information -----
Your calculation utilizes the AutoAux generation procedure.
  G. L. Stoychev, A. A. Auer, F. Neese, J. Chem. Theory Comput. 13, 554 (2017)

----- AuxC basis set information -----
Your calculation utilizes the AutoAux generation procedure.
  G. L. Stoychev, A. A. Auer, F. Neese, J. Chem. Theory Comput. 13, 554 (2017)

----- AuxJK basis set information -----
Your calculation utilizes the AutoAux generation procedure.
  G. L. Stoychev, A. A. Auer, F. Neese, J. Chem. Theory Comput. 13, 554 (2017)

================================================================================
                                        WARNINGS
                       Please study these warnings very carefully!
================================================================================


INFO   : the flag for use of the SHARK integral package has been found!

================================================================================
                                       INPUT FILE
================================================================================
NAME = rho.inp
|  1> !CASSCF  DKH DKH-def2-TZVPP  RIJCOSX NoSFitting VeryTightSCF autoaux moread SlowConv
|  2> %moinp "orb.gbw"
|  3> %pal
|  4> nprocs 10
|  5> end
|  6> %maxcore 4000
|  7> # swap
|  8> %scf
|  9>  Rotate
| 10>   { 45, 35 }
| 11>  end
| 12> end
| 13> #
| 14> %rel
| 15>  picturechange 2
| 16> end
| 17> %casscf
| 18>  nel  7
| 19>  norb 5
| 20>  mult 4,2
| 21>  nroots 10,40
| 22>  maxiter 100
| 23>  ActOrbs dOrbs
| 24>  rel
| 25>   printlevel 3
| 26>   dosoc true
| 27>   gtensor true
| 28>   quad true
| 29>  end
| 30> end
| 31> * xyzfile 0 4 geo.xyz *
| 32> 
| 33>                          ****END OF INPUT****
================================================================================

                       ****************************
                       * Single Point Calculation *
                       ****************************

---------------------------------
CARTESIAN COORDINATES (ANGSTROEM)
---------------------------------
  Co     0.000006    0.004144    0.001170
  C      1.921839    0.062917   -0.205853
  H      2.414016    0.334459   -1.150738
  C      2.745788   -0.229150    0.816150
  Cl     4.501009   -0.200811    0.727669
  H      2.429328   -0.517623    1.819983
  C     -1.921824   -0.053380    0.208569
  H     -2.413979   -0.324267    1.153653
  C     -2.745799    0.239036   -0.813314
  Cl    -4.501019    0.211952   -0.724425
  H     -2.429363    0.526916   -1.817325

----------------------------
CARTESIAN COORDINATES (A.U.)
----------------------------
  NO LB      ZA    FRAG     MASS         X           Y           Z
   0 Co   27.0000    0    58.930    0.000011    0.007830    0.002210
   1 C     6.0000    0    12.011    3.631749    0.118896   -0.389006
   2 H     1.0000    0     1.008    4.561829    0.632035   -2.174579
   3 C     6.0000    0    12.011    5.188787   -0.433031    1.542300
   4 Cl   17.0000    0    35.453    8.505674   -0.379478    1.375095
   5 H     1.0000    0     1.008    4.590764   -0.978166    3.439269
   6 C     6.0000    0    12.011   -3.631722   -0.100873    0.394138
   7 H     1.0000    0     1.008   -4.561759   -0.612776    2.180088
   8 C     6.0000    0    12.011   -5.188808    0.451712   -1.536940
   9 Cl   17.0000    0    35.453   -8.505694    0.400531   -1.368965
  10 H     1.0000    0     1.008   -4.590832    0.995726   -3.434246

--------------------------------
INTERNAL COORDINATES (ANGSTROEM)
--------------------------------
 Co     0   0   0     0.000000000000     0.00000000     0.00000000
 C      1   0   0     1.933844949296     0.00000000     0.00000000
 H      2   1   0     1.099445058604   122.98285299     0.00000000
 C      2   1   3     1.344873530706   121.39273644   179.89560760
 Cl     4   2   1     1.757678493920   124.75345823   180.12946060
 H      4   2   1     1.091349822930   125.36170745     0.11197018
 C      1   2   3     1.933844347475   179.96132463   269.27548789
 H      7   1   2     1.099445383769   122.98204465   270.74191739
 C      7   1   2     1.344873107321   121.39358171    90.83412735
 Cl     9   7   1     1.757678555938   124.75336404   179.87624394
 H      9   7   1     1.091349711066   125.36171971   359.90329967

---------------------------
INTERNAL COORDINATES (A.U.)
---------------------------
 Co     0   0   0     0.000000000000     0.00000000     0.00000000
 C      1   0   0     3.654437339636     0.00000000     0.00000000
 H      2   1   0     2.077650060055   122.98285299     0.00000000
 C      2   1   3     2.541442657793   121.39273644   179.89560760
 Cl     4   2   1     3.321530984993   124.75345823   180.12946060
 H      4   2   1     2.062352281641   125.36170745     0.11197018
 C      1   2   3     3.654436202360   179.96132463   269.27548789
 H      7   1   2     2.077650674527   122.98204465   270.74191739
 C      7   1   2     2.541441857712   121.39358171    90.83412735
 Cl     9   7   1     3.321531102189   124.75336404   179.87624394
 H      9   7   1     2.062352070249   125.36171971   359.90329967

---------------------
BASIS SET INFORMATION
---------------------
There are 4 groups of distinct atoms

 Group   1 Type Co  : 17s12p7d2f1g contracted to 10s7p4d2f1g pattern {8111111111/6111111/4111/11/1}
 Group   2 Type C   : 11s6p2d1f contracted to 6s3p2d1f pattern {611111/411/11/1}
 Group   3 Type H   : 5s2p1d contracted to 3s2p1d pattern {311/11/1}
 Group   4 Type Cl  : 14s9p3d1f contracted to 8s4p3d1f pattern {71111111/6111/111/1}

Atom   0Co   basis set group =>   1
Atom   1C    basis set group =>   2
Atom   2H    basis set group =>   3
Atom   3C    basis set group =>   2
Atom   4Cl   basis set group =>   4
Atom   5H    basis set group =>   3
Atom   6C    basis set group =>   2
Atom   7H    basis set group =>   3
Atom   8C    basis set group =>   2
Atom   9Cl   basis set group =>   4
Atom  10H    basis set group =>   3
---------------------------------
AUXILIARY/J BASIS SET INFORMATION
---------------------------------
There are 4 groups of distinct atoms

 Group   1 Type Co  : 22s18p17d17f16g6h3i contracted to 22s18p17d17f16g6h3i pattern {1111111111111111111111/111111111111111111/11111111111111111/11111111111111111/1111111111111111/111111/111}
 Group   2 Type C   : 16s13p12d7f3g contracted to 16s13p12d7f3g pattern {1111111111111111/1111111111111/111111111111/1111111/111}
 Group   3 Type H   : 11s4p3d2f contracted to 11s4p3d2f pattern {11111111111/1111/111/11}
 Group   4 Type Cl  : 18s15p14d9f5g contracted to 18s15p14d9f5g pattern {111111111111111111/111111111111111/11111111111111/111111111/11111}

Atom   0Co   basis set group =>   1
Atom   1C    basis set group =>   2
Atom   2H    basis set group =>   3
Atom   3C    basis set group =>   2
Atom   4Cl   basis set group =>   4
Atom   5H    basis set group =>   3
Atom   6C    basis set group =>   2
Atom   7H    basis set group =>   3
Atom   8C    basis set group =>   2
Atom   9Cl   basis set group =>   4
Atom  10H    basis set group =>   3
---------------------------------
AUXILIARY/C BASIS SET INFORMATION
---------------------------------
There are 4 groups of distinct atoms

 Group   1 Type Co  : 22s18p17d17f16g6h3i contracted to 22s18p17d17f16g6h3i pattern {1111111111111111111111/111111111111111111/11111111111111111/11111111111111111/1111111111111111/111111/111}
 Group   2 Type C   : 16s13p12d7f3g contracted to 16s13p12d7f3g pattern {1111111111111111/1111111111111/111111111111/1111111/111}
 Group   3 Type H   : 11s4p3d2f contracted to 11s4p3d2f pattern {11111111111/1111/111/11}
 Group   4 Type Cl  : 18s15p14d9f5g contracted to 18s15p14d9f5g pattern {111111111111111111/111111111111111/11111111111111/111111111/11111}

Atom   0Co   basis set group =>   1
Atom   1C    basis set group =>   2
Atom   2H    basis set group =>   3
Atom   3C    basis set group =>   2
Atom   4Cl   basis set group =>   4
Atom   5H    basis set group =>   3
Atom   6C    basis set group =>   2
Atom   7H    basis set group =>   3
Atom   8C    basis set group =>   2
Atom   9Cl   basis set group =>   4
Atom  10H    basis set group =>   3
----------------------------------
AUXILIARY/JK BASIS SET INFORMATION
----------------------------------
There are 4 groups of distinct atoms

 Group   1 Type Co  : 22s18p17d17f16g6h3i contracted to 22s18p17d17f16g6h3i pattern {1111111111111111111111/111111111111111111/11111111111111111/11111111111111111/1111111111111111/111111/111}
 Group   2 Type C   : 16s13p12d7f3g contracted to 16s13p12d7f3g pattern {1111111111111111/1111111111111/111111111111/1111111/111}
 Group   3 Type H   : 11s4p3d2f contracted to 11s4p3d2f pattern {11111111111/1111/111/11}
 Group   4 Type Cl  : 18s15p14d9f5g contracted to 18s15p14d9f5g pattern {111111111111111111/111111111111111/11111111111111/111111111/11111}

Atom   0Co   basis set group =>   1
Atom   1C    basis set group =>   2
Atom   2H    basis set group =>   3
Atom   3C    basis set group =>   2
Atom   4Cl   basis set group =>   4
Atom   5H    basis set group =>   3
Atom   6C    basis set group =>   2
Atom   7H    basis set group =>   3
Atom   8C    basis set group =>   2
Atom   9Cl   basis set group =>   4
Atom  10H    basis set group =>   3
mel0423:rank7.orca_gtoint_mpi: Failed to modify UD QP to INIT on mlx5_0: Operation not permitted
mel0423:rank6.orca_gtoint_mpi: Failed to modify UD QP to INIT on mlx5_0: Operation not permitted
mel0423:rank5.orca_gtoint_mpi: Failed to modify UD QP to INIT on mlx5_0: Operation not permitted
mel0423:rank7.orca_gtoint_mpi: Failed to modify UD QP to INIT on mlx5_0: Operation not permitted
mel0423:rank4.orca_gtoint_mpi: Failed to modify UD QP to INIT on mlx5_0: Operation not permitted
mel0423:rank6.orca_gtoint_mpi: Failed to modify UD QP to INIT on mlx5_0: Operation not permitted
mel0423:rank7.orca_gtoint_mpi: Failed to modify UD QP to INIT on mlx5_0: Operation not permitted
mel0423:rank5.orca_gtoint_mpi: Failed to modify UD QP to INIT on mlx5_0: Operation not permitted
mel0423:rank3.orca_gtoint_mpi: Failed to modify UD QP to INIT on mlx5_0: Operation not permitted
mel0423:rank5.orca_gtoint_mpi: Failed to modify UD QP to INIT on mlx5_0: Operation not permitted
mel0423:rank6.orca_gtoint_mpi: Failed to modify UD QP to INIT on mlx5_0: Operation not permitted
mel0423:rank2.orca_gtoint_mpi: Failed to modify UD QP to INIT on mlx5_0: Operation not permitted
mel0423:rank4.orca_gtoint_mpi: Failed to modify UD QP to INIT on mlx5_0: Operation not permitted
mel0423:rank9.orca_gtoint_mpi: Failed to modify UD QP to INIT on mlx5_0: Operation not permitted
mel0423:rank4.orca_gtoint_mpi: Failed to modify UD QP to INIT on mlx5_0: Operation not permitted
mel0423:rank3.orca_gtoint_mpi: Failed to modify UD QP to INIT on mlx5_0: Operation not permitted
mel0423:rank1.orca_gtoint_mpi: Failed to modify UD QP to INIT on mlx5_0: Operation not permitted
mel0423:rank2.orca_gtoint_mpi: Failed to modify UD QP to INIT on mlx5_0: Operation not permitted
mel0423:rank3.orca_gtoint_mpi: Failed to modify UD QP to INIT on mlx5_0: Operation not permitted
mel0423:rank2.orca_gtoint_mpi: Failed to modify UD QP to INIT on mlx5_0: Operation not permitted
mel0423:rank0.orca_gtoint_mpi: Failed to modify UD QP to INIT on mlx5_0: Operation not permitted
mel0423:rank8.orca_gtoint_mpi: Failed to modify UD QP to INIT on mlx5_0: Operation not permitted
mel0423:rank9.orca_gtoint_mpi: Failed to modify UD QP to INIT on mlx5_0: Operation not permitted
mel0423:rank1.orca_gtoint_mpi: Failed to modify UD QP to INIT on mlx5_0: Operation not permitted
mel0423:rank9.orca_gtoint_mpi: Failed to modify UD QP to INIT on mlx5_0: Operation not permitted
mel0423:rank0.orca_gtoint_mpi: Failed to modify UD QP to INIT on mlx5_0: Operation not permitted
mel0423:rank1.orca_gtoint_mpi: Failed to modify UD QP to INIT on mlx5_0: Operation not permitted
mel0423:rank0.orca_gtoint_mpi: Failed to modify UD QP to INIT on mlx5_0: Operation not permitted
mel0423:rank7.orca_gtoint_mpi: Failed to modify UD QP to INIT on mlx5_0: Operation not permitted
mel0423:rank8.orca_gtoint_mpi: Failed to modify UD QP to INIT on mlx5_0: Operation not permitted
mel0423:rank5.orca_gtoint_mpi: Failed to modify UD QP to INIT on mlx5_0: Operation not permitted
mel0423:rank8.orca_gtoint_mpi: Failed to modify UD QP to INIT on mlx5_0: Operation not permitted
mel0423:rank4.orca_gtoint_mpi: Failed to modify UD QP to INIT on mlx5_0: Operation not permitted
mel0423:rank6.orca_gtoint_mpi: Failed to modify UD QP to INIT on mlx5_0: Operation not permitted
mel0423:rank2.orca_gtoint_mpi: Failed to modify UD QP to INIT on mlx5_0: Operation not permitted
mel0423:rank3.orca_gtoint_mpi: Failed to modify UD QP to INIT on mlx5_0: Operation not permitted
mel0423:rank9.orca_gtoint_mpi: Failed to modify UD QP to INIT on mlx5_0: Operation not permitted
mel0423:rank1.orca_gtoint_mpi: Failed to modify UD QP to INIT on mlx5_0: Operation not permitted
mel0423:rank0.orca_gtoint_mpi: Failed to modify UD QP to INIT on mlx5_0: Operation not permitted
mel0423:rank8.orca_gtoint_mpi: Failed to modify UD QP to INIT on mlx5_0: Operation not permitted


           ************************************************************
           *        Program running with 10 parallel MPI-processes    *
           *              working on a common directory               *
           ************************************************************
------------------------------------------------------------------------------
                           ORCA GTO INTEGRAL CALCULATION
                           -- RI-GTO INTEGRALS CHOSEN --
------------------------------------------------------------------------------
------------------------------------------------------------------------------
                   ___                                                        
                  /   \      - P O W E R E D   B Y -                         
                 /     \                                                     
                 |  |  |   _    _      __       _____    __    __             
                 |  |  |  | |  | |    /  \     |  _  \  |  |  /  |          
                  \  \/   | |  | |   /    \    | | | |  |  | /  /          
                 / \  \   | |__| |  /  /\  \   | |_| |  |  |/  /          
                |  |  |   |  __  | /  /__\  \  |    /   |      \           
                |  |  |   | |  | | |   __   |  |    \   |  |\   \          
                \     /   | |  | | |  |  |  |  | |\  \  |  | \   \       
                 \___/    |_|  |_| |__|  |__|  |_| \__\ |__|  \__/        
                                                                              
                      - O R C A' S   B I G   F R I E N D -                    
                                      &                                       
                       - I N T E G R A L  F E E D E R -                       
                                                                              
 v1 FN, 2020, v2 2021                                                         
------------------------------------------------------------------------------


Reading SHARK input file rho.SHARKINP.tmp ... ok
----------------------
SHARK INTEGRAL PACKAGE
----------------------

Number of atoms                             ...     11
Number of basis functions                   ...    342
Number of shells                            ...    128
Maximum angular momentum                    ...      4
Integral batch strategy                     ... SHARK/LIBINT Hybrid
RI-J (if used) integral strategy            ... SPLIT-RIJ (Revised 2003 algorithm where possible)
Printlevel                                  ...      1
Contraction scheme used                     ... SEGMENTED contraction
Coulomb Range Separation                    ... NOT USED
Exchange Range Separation                   ... NOT USED
Finite Nucleus Model                        ... NOT USED
Auxiliary Coulomb fitting basis             ... AVAILABLE
   # of basis functions in Aux-J            ...   1983
   # of shells in Aux-J                     ...    505
   Maximum angular momentum in Aux-J        ...      6
Auxiliary J/K fitting basis                 ... AVAILABLE
   # of basis functions in Aux-JK           ...   1983
   # of shells in Aux-JK                    ...    505
   Maximum angular momentum in Aux-JK       ...      6
Auxiliary Correlation fitting basis         ... AVAILABLE
   # of basis functions in Aux-C            ...   1983
   # of shells in Aux-C                     ...    505
   Maximum angular momentum in Aux-C        ...      6
Auxiliary 'external' fitting basis          ... NOT available
Integral threshold                          ...     1.000000e-12
Primitive cut-off                           ...     1.000000e-14
Primitive pair pre-selection threshold      ...     1.000000e-14

Calculating pre-screening integrals         ... done (  0.1 sec) Dimension = 128
Organizing shell pair data                  ... done (  0.1 sec)
Shell pair information
Total number of shell pairs                 ...      8256
Shell pairs after pre-screening             ...      6272
Total number of primitive shell pairs       ...     21332
Primitive shell pairs kept                  ...     12431
          la=0 lb=0:   1349 shell pairs
          la=1 lb=0:   1680 shell pairs
          la=1 lb=1:    540 shell pairs
          la=2 lb=0:   1016 shell pairs
          la=2 lb=1:    636 shell pairs
          la=2 lb=2:    195 shell pairs
          la=3 lb=0:    356 shell pairs
          la=3 lb=1:    232 shell pairs
          la=3 lb=2:    136 shell pairs
          la=3 lb=3:     28 shell pairs
          la=4 lb=0:     46 shell pairs
          la=4 lb=1:     31 shell pairs
          la=4 lb=2:     18 shell pairs
          la=4 lb=3:      8 shell pairs
          la=4 lb=4:      1 shell pairs

Calculating one electron integrals          ... done (  0.0 sec)
Calculating RI/J V-Matrix + Cholesky decomp.... done (  0.3 sec)
Calculating RI/JK V-Matrix + Cholesky decomp... done (  0.3 sec)
Calculating RI/C V-Matrix + Cholesky decomp.... done (  0.3 sec)
Calculating Nuclear repulsion               ... done (  0.0 sec) ENN=    510.274594409666 Eh

SHARK setup successfully completed in   1.4 seconds

Maximum memory used throughout the entire GTOINT-calculation: 40.4 MB


           ************************************************************
           *        Program running with 10 parallel MPI-processes    *
           *              working on a common directory               *
           ************************************************************
------------------------------------------------------------------------------
                          ORCA RELATIVISTIC HAMILTONIAN
------------------------------------------------------------------------------

Relativistic Method            ... DKH
Order of DKH treatment         ...   2
Treatment of potential         ... V(e,N)
Eps parameter for DKH          ...   0.00000000010000
Nucleus model                  ... Point Nucleus
Speed of light used            ... 137.03598950000000


            ************************************************
            *        DOUGLAS-KROLL-HESS HAMILTONIAN        *
            *   Programmed by FN according to literature   *
            *        procedures. Special thanks to         *
            *       B.A. Hess, M. Reiher and A. Wolf       *
            *     University Erlangen-Nuernberg/Bonn       *
            ************************************************

Uncontracting the basis (first version)        ... done
Number of contracted basis functions           ...  342
Number of uncontracted basis functions         ...  485
Initializing the DKH file                      ... done
Calculating the relativistic integrals         ... done
Storing DKH matrices                           ... done
Code used for DKH trafo                        ... ORCA
Computing the DKH transformation               ... done
Storing the transformation variables           ... done
Transforming V and pVp to p**2 space           ... done
First transformation of V and pVp              ... done
Second transformation of Veff                  ... done
Adding kinetic energy                          ... done
Back transformation of Veff to r-space         ... done
Recovering DKH matrices                        ... done
Recontracting the H-matrix (first version)     ... done
Computing the DKH correction to the H-matrix   ... done
Reading the original H-matrix                  ... done
Adding DKH correction to the H-matrix          ... done
Storing the new modified H-matrix              ... done

Maximum memory used throughout the entire REL-calculation: 72.5 MB
mel0423:rank4.orca_scf_mpi: Failed to modify UD QP to INIT on mlx5_0: Operation not permitted
mel0423:rank5.orca_scf_mpi: Failed to modify UD QP to INIT on mlx5_0: Operation not permitted
mel0423:rank4.orca_scf_mpi: Failed to modify UD QP to INIT on mlx5_0: Operation not permitted
mel0423:rank4.orca_scf_mpi: Failed to modify UD QP to INIT on mlx5_0: Operation not permitted
mel0423:rank5.orca_scf_mpi: Failed to modify UD QP to INIT on mlx5_0: Operation not permitted
mel0423:rank5.orca_scf_mpi: Failed to modify UD QP to INIT on mlx5_0: Operation not permitted
mel0423:rank7.orca_scf_mpi: Failed to modify UD QP to INIT on mlx5_0: Operation not permitted
mel0423:rank3.orca_scf_mpi: Failed to modify UD QP to INIT on mlx5_0: Operation not permitted
mel0423:rank2.orca_scf_mpi: Failed to modify UD QP to INIT on mlx5_0: Operation not permitted
mel0423:rank9.orca_scf_mpi: Failed to modify UD QP to INIT on mlx5_0: Operation not permitted
mel0423:rank6.orca_scf_mpi: Failed to modify UD QP to INIT on mlx5_0: Operation not permitted
mel0423:rank0.orca_scf_mpi: Failed to modify UD QP to INIT on mlx5_0: Operation not permitted
mel0423:rank8.orca_scf_mpi: Failed to modify UD QP to INIT on mlx5_0: Operation not permitted
mel0423:rank2.orca_scf_mpi: Failed to modify UD QP to INIT on mlx5_0: Operation not permitted
mel0423:rank3.orca_scf_mpi: Failed to modify UD QP to INIT on mlx5_0: Operation not permitted
mel0423:rank9.orca_scf_mpi: Failed to modify UD QP to INIT on mlx5_0: Operation not permitted
mel0423:rank7.orca_scf_mpi: Failed to modify UD QP to INIT on mlx5_0: Operation not permitted
mel0423:rank1.orca_scf_mpi: Failed to modify UD QP to INIT on mlx5_0: Operation not permitted
mel0423:rank6.orca_scf_mpi: Failed to modify UD QP to INIT on mlx5_0: Operation not permitted
mel0423:rank8.orca_scf_mpi: Failed to modify UD QP to INIT on mlx5_0: Operation not permitted
mel0423:rank0.orca_scf_mpi: Failed to modify UD QP to INIT on mlx5_0: Operation not permitted
mel0423:rank2.orca_scf_mpi: Failed to modify UD QP to INIT on mlx5_0: Operation not permitted
mel0423:rank3.orca_scf_mpi: Failed to modify UD QP to INIT on mlx5_0: Operation not permitted
mel0423:rank7.orca_scf_mpi: Failed to modify UD QP to INIT on mlx5_0: Operation not permitted
mel0423:rank9.orca_scf_mpi: Failed to modify UD QP to INIT on mlx5_0: Operation not permitted
mel0423:rank4.orca_scf_mpi: Failed to modify UD QP to INIT on mlx5_0: Operation not permitted
mel0423:rank6.orca_scf_mpi: Failed to modify UD QP to INIT on mlx5_0: Operation not permitted
mel0423:rank0.orca_scf_mpi: Failed to modify UD QP to INIT on mlx5_0: Operation not permitted
mel0423:rank8.orca_scf_mpi: Failed to modify UD QP to INIT on mlx5_0: Operation not permitted
mel0423:rank1.orca_scf_mpi: Failed to modify UD QP to INIT on mlx5_0: Operation not permitted
mel0423:rank5.orca_scf_mpi: Failed to modify UD QP to INIT on mlx5_0: Operation not permitted
mel0423:rank1.orca_scf_mpi: Failed to modify UD QP to INIT on mlx5_0: Operation not permitted
mel0423:rank6.orca_scf_mpi: Failed to modify UD QP to INIT on mlx5_0: Operation not permitted
mel0423:rank7.orca_scf_mpi: Failed to modify UD QP to INIT on mlx5_0: Operation not permitted
mel0423:rank2.orca_scf_mpi: Failed to modify UD QP to INIT on mlx5_0: Operation not permitted
mel0423:rank3.orca_scf_mpi: Failed to modify UD QP to INIT on mlx5_0: Operation not permitted
mel0423:rank9.orca_scf_mpi: Failed to modify UD QP to INIT on mlx5_0: Operation not permitted
mel0423:rank8.orca_scf_mpi: Failed to modify UD QP to INIT on mlx5_0: Operation not permitted
mel0423:rank0.orca_scf_mpi: Failed to modify UD QP to INIT on mlx5_0: Operation not permitted
mel0423:rank1.orca_scf_mpi: Failed to modify UD QP to INIT on mlx5_0: Operation not permitted


           ************************************************************
           *        Program running with 10 parallel MPI-processes    *
           *              working on a common directory               *
           ************************************************************
-------------------------------------------------------------------------------
                                 ORCA SCF
-------------------------------------------------------------------------------

------------
SCF SETTINGS
------------
Hamiltonian:
 Ab initio Hamiltonian  Method          .... Hartree-Fock(GTOs)
 RI-approximation to the Coulomb term is turned on
   Number of AuxJ basis functions       .... 1983
   RIJ-COSX (HFX calculated with COS-X)).... on

Relativistic Settings:
 Scalar relativistic method             .... Douglas-Kroll-Hess
 Order of DKH procedure    Order        ....    2
 Mode of DKH-treatment                  .... V=V(e,N)
 Speed of light used       Velit        ....       137.035989
 Cutoff-constant           Eps          ....            1e-10 


General Settings:
 Integral files         IntName         .... rho
 Hartree-Fock type      HFTyp           .... CASSCF
 Total Charge           Charge          ....    0
 Multiplicity           Mult            ....    4
 Number of Electrons    NEL             ....   89
 Basis Dimension        Dim             ....  342
 Nuclear Repulsion      ENuc            ....    510.2745944097 Eh


Diagonalization of the overlap matrix:
Smallest eigenvalue                        ... 1.689e-04
Time for diagonalization                   ...    0.025 sec
Threshold for overlap eigenvalues          ... 1.000e-08
Number of eigenvalues below threshold      ... 0
Time for construction of square roots      ...    0.015 sec
Total time needed                          ...    0.042 sec

---------------------
INITIAL GUESS: MOREAD
---------------------
Guess MOs are being read from file: orb.gbw
Input Geometry matches current geometry (good)
Input basis set matches current basis set (good)
MOs were renormalized
Gram-Schmidt orthogonalization of all MOs with pivot on actives
-----------------
ORBITAL ROTATIONS
-----------------
  Rotation  45(0)   35(0) cos(t)= 0.000000  sin(t)= 1.000000
  Orbital Energies were swapped
                      ------------------
                      INITIAL GUESS DONE (   0.3 sec)
                      ------------------
--------------------
COSX GRID GENERATION
--------------------

GRIDX 1
-------
General Integration Accuracy     IntAcc      ... 3.816
Radial Grid Type                 RadialGrid  ... OptM3 with GC (2021)
Angular Grid (max. ang.)         AngularGrid ... 1 (Lebedev-50)
Angular grid pruning method      GridPruning ... 4 (adaptive)
Weight generation scheme         WeightScheme... Becke
Basis function cutoff            BFCut       ... 1.0000e-12
Integration weight cutoff        WCut        ... 1.0000e-14
Angular grids for H and He will be reduced by one unit
Partially contracted basis set               ... on
Rotationally invariant grid construction     ... off

Total number of grid points                  ...     7684
Total number of batches                      ...      124
Average number of points per batch           ...       61
Average number of grid points per atom       ...      699

GRIDX 2
-------
General Integration Accuracy     IntAcc      ... 4.020
Radial Grid Type                 RadialGrid  ... OptM3 with GC (2021)
Angular Grid (max. ang.)         AngularGrid ... 2 (Lebedev-110)
Angular grid pruning method      GridPruning ... 4 (adaptive)
Weight generation scheme         WeightScheme... Becke
Basis function cutoff            BFCut       ... 1.0000e-12
Integration weight cutoff        WCut        ... 1.0000e-14
Angular grids for H and He will be reduced by one unit
Partially contracted basis set               ... on
Rotationally invariant grid construction     ... off

Total number of grid points                  ...    17029
Total number of batches                      ...      270
Average number of points per batch           ...       63
Average number of grid points per atom       ...     1548

GRIDX 3
-------
General Integration Accuracy     IntAcc      ... 4.338
Radial Grid Type                 RadialGrid  ... OptM3 with GC (2021)
Angular Grid (max. ang.)         AngularGrid ... 3 (Lebedev-194)
Angular grid pruning method      GridPruning ... 4 (adaptive)
Weight generation scheme         WeightScheme... Becke
Basis function cutoff            BFCut       ... 1.0000e-12
Integration weight cutoff        WCut        ... 1.0000e-14
Angular grids for H and He will be reduced by one unit
Partially contracted basis set               ... on
Rotationally invariant grid construction     ... off

Total number of grid points                  ...    39030
Total number of batches                      ...      615
Average number of points per batch           ...       63
Average number of grid points per atom       ...     3548

Time for X-Grid setup             =    0.277 sec



 ... the calculation is a CASSCF calculation -I'm leaving here GOOD LUCK!!!



           ************************************************************
           *        Program running with 10 parallel MPI-processes    *
           *              working on a common directory               *
           ************************************************************
-------------------------------------------------------------------------------
                              ORCA-CASSCF
-------------------------------------------------------------------------------

Setting up the integral package       ... done
Setting up the integral package (RI)  ... done
Building the CAS space                ... done (10 configurations for Mult=4)
Building the CAS space                ... done (30 configurations for Mult=2)

SYSTEM-SPECIFIC SETTINGS:
Number of active electrons          ...    7
Number of active orbitals           ...    5
Total number of electrons           ...   89
Total number of orbitals            ...  342
Total number aux. functions         ... 1983

Determined orbital ranges:
   Internal       0 -   40 (  41 orbitals)
   Active        41 -   45 (   5 orbitals)
   External      46 -  341 ( 296 orbitals)
Number of rotation parameters      ...  13821

CI-STEP:
CI strategy                         ... General CI
Number of multiplicity blocks       ...    2
BLOCK  1 WEIGHT=   0.5000
  Multiplicity                      ...    4
  #(Configurations)                 ...   10
  #(CSFs)                           ...   10
  #(Roots)                          ...   10
    ROOT=0 WEIGHT=    0.050000
    ROOT=1 WEIGHT=    0.050000
    ROOT=2 WEIGHT=    0.050000
    ROOT=3 WEIGHT=    0.050000
    ROOT=4 WEIGHT=    0.050000
    ROOT=5 WEIGHT=    0.050000
    ROOT=6 WEIGHT=    0.050000
    ROOT=7 WEIGHT=    0.050000
    ROOT=8 WEIGHT=    0.050000
    ROOT=9 WEIGHT=    0.050000

BLOCK  2 WEIGHT=   0.5000
  Multiplicity                      ...    2
  #(Configurations)                 ...   30
  #(CSFs)                           ...   40
  #(Roots)                          ...   40
    ROOT=0 WEIGHT=    0.012500
    ROOT=1 WEIGHT=    0.012500
    ROOT=2 WEIGHT=    0.012500
    ROOT=3 WEIGHT=    0.012500
    ROOT=4 WEIGHT=    0.012500
    ROOT=5 WEIGHT=    0.012500
    ROOT=6 WEIGHT=    0.012500
    ROOT=7 WEIGHT=    0.012500
    ROOT=8 WEIGHT=    0.012500
    ROOT=9 WEIGHT=    0.012500
    ROOT=10 WEIGHT=    0.012500
    ROOT=11 WEIGHT=    0.012500
    ROOT=12 WEIGHT=    0.012500
    ROOT=13 WEIGHT=    0.012500
    ROOT=14 WEIGHT=    0.012500
    ROOT=15 WEIGHT=    0.012500
    ROOT=16 WEIGHT=    0.012500
    ROOT=17 WEIGHT=    0.012500
    ROOT=18 WEIGHT=    0.012500
    ROOT=19 WEIGHT=    0.012500
    ROOT=20 WEIGHT=    0.012500
    ROOT=21 WEIGHT=    0.012500
    ROOT=22 WEIGHT=    0.012500
    ROOT=23 WEIGHT=    0.012500
    ROOT=24 WEIGHT=    0.012500
    ROOT=25 WEIGHT=    0.012500
    ROOT=26 WEIGHT=    0.012500
    ROOT=27 WEIGHT=    0.012500
    ROOT=28 WEIGHT=    0.012500
    ROOT=29 WEIGHT=    0.012500
    ROOT=30 WEIGHT=    0.012500
    ROOT=31 WEIGHT=    0.012500
    ROOT=32 WEIGHT=    0.012500
    ROOT=33 WEIGHT=    0.012500
    ROOT=34 WEIGHT=    0.012500
    ROOT=35 WEIGHT=    0.012500
    ROOT=36 WEIGHT=    0.012500
    ROOT=37 WEIGHT=    0.012500
    ROOT=38 WEIGHT=    0.012500
    ROOT=39 WEIGHT=    0.012500

  PrintLevel                        ...    1
  N(GuessMat)                       ...       512
  MaxDim(CI)                        ...        10
  MaxIter(CI)                       ...        64
  Energy Tolerance CI               ...  1.00e-09
  Residual Tolerance CI             ...  1.00e-09
  Shift(CI)                         ...  1.00e-04

INTEGRAL-TRANSFORMATION-STEP:
  Algorithm                         ... RI-MO

ORBITAL-IMPROVEMENT-STEP:
  Algorithm                         ... SuperCI
  Default Parametrization           ... CAYLEY
  Act-Act rotations                 ... depends on algorithm used
  FreezeIE                          ... 95.00% of ||g||
  Until reaching FreezeIE rotations with active orbitals are damped. 

  Approx. Fock at                   ... 0.000000e+00 density convergence
  Level shift                       ... energy gap dependent. Minimum=1.000
  Switch step at gradient           ...  3.00e-02 
  Switch step at iteration          ...        50   
  Switch step to                    ... DIIS    

SCF-SETTINGS:
  Incremental                       ... off
  RIJCOSX approximation             ... on
  UseFinalGrid                      ... on
  RI-JK approximation               ... off
  AO integral handling              ... DIRECT
  Integral Neglect Thresh           ...  1.00e-12
  Primitive cutoff TCut             ...  1.00e-14
  Energy convergence tolerance      ...  1.00e-08
  Orbital gradient convergence      ...  1.00e-05
  Max. number of iterations         ...       100  


PROPERTIES-SETTINGS:
  Spin orbit coupling               ... true
  GTensor                           ... true

FINAL ORBITALS:
  Active   Orbitals                 ... d-orbitals 
  Internal Orbitals                 ... canonical 
  External Orbitals                 ... canonical 

------------------
CAS-SCF ITERATIONS
------------------


MACRO-ITERATION   1: 
   --- Canonicalize Internal Space
   --- Canonicalize External Space
   --- Inactive Energy E0 = -2444.32384813 Eh
CI-ITERATION   0: 
 -2467.423472165   0.000000000000 (    0.00)
 -2467.423041292   0.000000000000
 -2467.414893688   0.000000000000
 -2467.406762187   0.000000000000
 -2467.403268758   0.000000000000
 -2467.384055880   0.000000000000
 -2467.375323087   0.000000000000
 -2467.350785102   0.000000000000
 -2467.313616083   0.000000000000
 -2467.308931938   0.000000000000
   CI-PROBLEM SOLVED
   DENSITIES MADE
CI-ITERATION   0: 
 -2467.376722963   0.000000000000 (    0.00)
 -2467.368937966   0.000000000000
 -2467.355054453   0.000000000000
 -2467.354657599   0.000000000000
 -2467.345256795   0.000000000000
 -2467.344379460   0.000000000000
 -2467.336013345   0.000000000000
 -2467.333974118   0.000000000000
 -2467.333627945   0.000000000000
 -2467.331954192   0.000000000000
 -2467.321478375   0.000000000000
 -2467.320438207   0.000000000000
 -2467.308319873   0.000000000000
 -2467.308009581   0.000000000000
 -2467.307671788   0.000000000000
 -2467.306653238   0.000000000000
 -2467.296256299   0.000000000000
 -2467.296012181   0.000000000000
 -2467.291183989   0.000000000000
 -2467.290889293   0.000000000000
 -2467.288856385   0.000000000000
 -2467.286015850   0.000000000000
 -2467.285835283   0.000000000000
 -2467.284438312   0.000000000000
 -2467.283572830   0.000000000000
 -2467.277534771   0.000000000000
 -2467.269362373   0.000000000000
 -2467.269254797   0.000000000000
 -2467.237321261   0.000000000000
 -2467.228811068   0.000000000000
 -2467.228100005   0.000000000000
 -2467.218297547   0.000000000000
 -2467.216762102   0.000000000000
 -2467.215253184   0.000000000000
 -2467.214893676   0.000000000000
 -2467.146088516   0.000000000000
 -2467.130891573   0.000000000000
 -2467.126572961   0.000000000000
 -2467.100616814   0.000000000000
 -2467.097425841   0.000000000000
   CI-PROBLEM SOLVED
   DENSITIES MADE

                 <<<<<<<<<<<<<<<<<<INITIAL CI STATE CHECK>>>>>>>>>>>>>>>>>>

BLOCK  1 MULT= 4 NROOTS=10 
ROOT   0:  E=   -2467.4234721653 Eh
      0.53439 [     0]: 11122
      0.20598 [     1]: 11212
      0.10730 [     9]: 22111
      0.04435 [     6]: 21112
      0.04259 [     5]: 12211
      0.02322 [     8]: 21211
      0.01533 [     2]: 11221
      0.01152 [     4]: 12121
      0.01014 [     3]: 12112
      0.00519 [     7]: 21121
ROOT   1:  E=   -2467.4230412915 Eh  0.012 eV     94.6 cm**-1
      0.49236 [     3]: 12112
      0.18281 [     6]: 21112
      0.15192 [     2]: 11221
      0.08580 [     7]: 21121
      0.02467 [     0]: 11122
      0.01877 [     4]: 12121
      0.01494 [     9]: 22111
      0.01061 [     5]: 12211
      0.00975 [     8]: 21211
      0.00836 [     1]: 11212
ROOT   2:  E=   -2467.4148936879 Eh  0.233 eV   1882.8 cm**-1
      0.46448 [     4]: 12121
      0.15516 [     7]: 21121
      0.14184 [     1]: 11212
      0.11120 [     6]: 21112
      0.07225 [     9]: 22111
      0.02085 [     3]: 12112
      0.02079 [     2]: 11221
      0.01024 [     5]: 12211
ROOT   3:  E=   -2467.4067621868 Eh  0.455 eV   3667.4 cm**-1
      0.20374 [     8]: 21211
      0.19992 [     5]: 12211
      0.18882 [     0]: 11122
      0.17553 [     9]: 22111
      0.09813 [     7]: 21121
      0.06171 [     4]: 12121
      0.04526 [     3]: 12112
      0.01437 [     6]: 21112
      0.00979 [     2]: 11221
      0.00272 [     1]: 11212
ROOT   4:  E=   -2467.4032687584 Eh  0.550 eV   4434.1 cm**-1
      0.32099 [     7]: 21121
      0.20639 [     2]: 11221
      0.20611 [     5]: 12211
      0.19097 [     3]: 12112
      0.02798 [     0]: 11122
      0.02508 [     6]: 21112
      0.01604 [     4]: 12121
      0.00596 [     9]: 22111
ROOT   5:  E=   -2467.3840558801 Eh  1.073 eV   8650.9 cm**-1
      0.36810 [     1]: 11212
      0.31415 [     6]: 21112
      0.14125 [     3]: 12112
      0.07241 [     0]: 11122
      0.04671 [     9]: 22111
      0.03742 [     5]: 12211
      0.01017 [     7]: 21121
      0.00517 [     8]: 21211
      0.00297 [     2]: 11221
ROOT   6:  E=   -2467.3753230870 Eh  1.310 eV  10567.5 cm**-1
      0.68889 [     8]: 21211
      0.19023 [     5]: 12211
      0.04842 [     7]: 21121
      0.04663 [     4]: 12121
      0.01295 [     2]: 11221
      0.00722 [     9]: 22111
ROOT   7:  E=   -2467.3507851017 Eh  1.978 eV  15953.0 cm**-1
      0.21976 [     1]: 11212
      0.21387 [     6]: 21112
      0.14826 [     4]: 12121
      0.12169 [     5]: 12211
      0.10358 [     7]: 21121
      0.08545 [     0]: 11122
      0.07742 [     3]: 12112
      0.01642 [     9]: 22111
      0.01345 [     8]: 21211
ROOT   8:  E=   -2467.3136160831 Eh  2.989 eV  24110.6 cm**-1
      0.42170 [     9]: 22111
      0.17569 [     5]: 12211
      0.16012 [     2]: 11221
      0.09057 [     6]: 21112
      0.05317 [     8]: 21211
      0.05157 [     1]: 11212
      0.03027 [     4]: 12121
      0.00909 [     3]: 12112
      0.00748 [     7]: 21121
ROOT   9:  E=   -2467.3089319379 Eh  3.117 eV  25138.7 cm**-1
      0.41961 [     2]: 11221
      0.20071 [     4]: 12121
      0.16507 [     7]: 21121
      0.13198 [     9]: 22111
      0.06149 [     0]: 11122
      0.01171 [     3]: 12112
      0.00551 [     5]: 12211

BLOCK  2 MULT= 2 NROOTS=40 
ROOT   0:  E=   -2467.3767229627 Eh
      0.23684 [     8]: 12022
      0.20913 [     5]: 11122
      0.19172 [     1]: 02122
      0.10384 [     9]: 12112
      0.09239 [    17]: 21022
      0.03667 [     6]: 11212
      0.03010 [    18]: 21112
      0.02676 [    14]: 20122
      0.01973 [     2]: 02212
      0.01047 [    27]: 22120
      0.00883 [     0]: 01222
      0.00756 [    13]: 12220
      0.00746 [    23]: 22012
      0.00549 [    21]: 21211
      0.00263 [    25]: 22102
      0.00254 [    11]: 12202
ROOT   1:  E=   -2467.3689379657 Eh  0.212 eV   1708.6 cm**-1
      0.31297 [    10]: 12121
      0.13736 [    19]: 21121
      0.09845 [     7]: 11221
      0.07631 [    24]: 22021
      0.06968 [     5]: 11122
      0.06782 [    26]: 22111
      0.05155 [     3]: 02221
      0.05026 [    12]: 12211
      0.02514 [    21]: 21211
      0.02367 [    17]: 21022
      0.01639 [     0]: 01222
      0.01561 [     6]: 11212
      0.01508 [     2]: 02212
      0.00615 [    16]: 20221
      0.00509 [     9]: 12112
      0.00491 [    14]: 20122
      0.00417 [    15]: 20212
      0.00348 [     4]: 10222
      0.00331 [    18]: 21112
      0.00310 [     1]: 02122
      0.00287 [     8]: 12022
ROOT   2:  E=   -2467.3550544526 Eh  0.590 eV   4755.7 cm**-1
      0.21501 [     5]: 11122
      0.12310 [    17]: 21022
      0.10769 [     9]: 12112
      0.08895 [    14]: 20122
      0.08218 [    19]: 21121
      0.07230 [     2]: 02212
      0.04411 [     7]: 11221
      0.03309 [     6]: 11212
      0.03206 [    11]: 12202
      0.02745 [    23]: 22012
      0.02512 [    21]: 21211
      0.02221 [    16]: 20221
      0.02199 [     1]: 02122
      0.02078 [    26]: 22111
      0.01728 [     0]: 01222
      0.01367 [    22]: 21220
      0.01091 [    12]: 12211
      0.00961 [    25]: 22102
      0.00697 [    10]: 12121
      0.00509 [     4]: 10222
      0.00507 [    18]: 21112
      0.00498 [     3]: 02221
      0.00438 [    28]: 22201
      0.00255 [    24]: 22021
ROOT   3:  E=   -2467.3546575990 Eh  0.600 eV   4842.8 cm**-1
      0.17124 [     9]: 12112
      0.10919 [     8]: 12022
      0.10656 [     1]: 02122
      0.09863 [     6]: 11212
      0.09763 [    18]: 21112
      0.05788 [    14]: 20122
      0.03782 [     2]: 02212
      0.03706 [    15]: 20212
      0.03656 [    11]: 12202
      0.02825 [     0]: 01222
      0.02489 [    10]: 12121
      0.02238 [    17]: 21022
      0.02103 [    29]: 22210
      0.01872 [     4]: 10222
      0.01841 [    26]: 22111
      0.01770 [    23]: 22012
      0.01666 [    20]: 21202
      0.01465 [     7]: 11221
      0.01166 [    16]: 20221
      0.01025 [     5]: 11122
      0.00994 [    28]: 22201
      0.00928 [    21]: 21211
      0.00808 [    19]: 21121
      0.00603 [    12]: 12211
      0.00515 [    25]: 22102
ROOT   4:  E=   -2467.3452567946 Eh  0.856 eV   6906.0 cm**-1
      0.14828 [    19]: 21121
      0.11284 [     9]: 12112
      0.09241 [    23]: 22012
      0.08431 [    16]: 20221
      0.06530 [     5]: 11122
      0.06213 [     2]: 02212
      0.05947 [     7]: 11221
      0.05617 [    21]: 21211
      0.05400 [     3]: 02221
      0.03762 [    10]: 12121
      0.03265 [    12]: 12211
      0.03026 [     6]: 11212
      0.02853 [    18]: 21112
      0.02674 [    17]: 21022
      0.02467 [    11]: 12202
      0.02277 [    25]: 22102
      0.01273 [     1]: 02122
      0.00850 [     0]: 01222
      0.00601 [     8]: 12022
      0.00585 [    24]: 22021
      0.00516 [    22]: 21220
      0.00463 [     4]: 10222
      0.00459 [    20]: 21202
      0.00318 [    15]: 20212
      0.00299 [    13]: 12220
      0.00284 [    28]: 22201
ROOT   5:  E=   -2467.3443794603 Eh  0.880 eV   7098.6 cm**-1
      0.16114 [    12]: 12211
      0.12898 [     9]: 12112
      0.09239 [    26]: 22111
      0.07177 [    19]: 21121
      0.07161 [     0]: 01222
      0.05968 [    18]: 21112
      0.05675 [     4]: 10222
      0.05061 [     5]: 11122
      0.05058 [    28]: 22201
      0.04552 [    21]: 21211
      0.04185 [    24]: 22021
      0.02781 [    17]: 21022
      0.02413 [    10]: 12121
      0.01897 [    15]: 20212
      0.01708 [     6]: 11212
      0.01265 [    11]: 12202
      0.01190 [     1]: 02122
      0.01171 [    23]: 22012
      0.00948 [     8]: 12022
      0.00909 [    20]: 21202
      0.00682 [    25]: 22102
      0.00518 [     2]: 02212
      0.00431 [    14]: 20122
      0.00406 [    16]: 20221
ROOT   6:  E=   -2467.3360133448 Eh  1.108 eV   8934.7 cm**-1
      0.20385 [     5]: 11122
      0.12533 [     9]: 12112
      0.11462 [     8]: 12022
      0.09777 [     1]: 02122
      0.05870 [    17]: 21022
      0.04370 [     6]: 11212
      0.04315 [    25]: 22102
      0.04254 [     4]: 10222
      0.04102 [    11]: 12202
      0.02928 [    18]: 21112
      0.02484 [    21]: 21211
      0.02259 [    16]: 20221
      0.02136 [    13]: 12220
      0.02119 [    14]: 20122
      0.02095 [     7]: 11221
      0.01825 [    27]: 22120
      0.01557 [    19]: 21121
      0.01557 [    28]: 22201
      0.01269 [    20]: 21202
      0.00877 [    12]: 12211
      0.00580 [     2]: 02212
      0.00392 [     0]: 01222
ROOT   7:  E=   -2467.3339741178 Eh  1.163 eV   9382.3 cm**-1
      0.15023 [     5]: 11122
      0.10646 [    14]: 20122
      0.09136 [    26]: 22111
      0.07041 [     2]: 02212
      0.06605 [    10]: 12121
      0.06600 [     6]: 11212
      0.06519 [    12]: 12211
      0.05668 [    17]: 21022
      0.05557 [    18]: 21112
      0.05408 [     9]: 12112
      0.05348 [     1]: 02122
      0.03810 [     0]: 01222
      0.03318 [    19]: 21121
      0.02692 [    21]: 21211
      0.01938 [    15]: 20212
      0.01062 [    23]: 22012
      0.00910 [     7]: 11221
      0.00477 [    28]: 22201
      0.00394 [    24]: 22021
      0.00340 [    27]: 22120
      0.00309 [    11]: 12202
      0.00279 [    13]: 12220
      0.00265 [     8]: 12022
ROOT   8:  E=   -2467.3336279446 Eh  1.173 eV   9458.3 cm**-1
      0.14778 [    18]: 21112
      0.12640 [     9]: 12112
      0.08652 [     6]: 11212
      0.08324 [    19]: 21121
      0.07258 [     8]: 12022
      0.05750 [     7]: 11221
      0.05498 [    10]: 12121
      0.05313 [    23]: 22012
      0.04596 [    11]: 12202
      0.04119 [     2]: 02212
      0.03018 [     3]: 02221
      0.02896 [    21]: 21211
      0.02547 [     4]: 10222
      0.02421 [    12]: 12211
      0.02377 [     1]: 02122
      0.01865 [    16]: 20221
      0.01591 [     5]: 11122
      0.01465 [    27]: 22120
      0.01032 [    26]: 22111
      0.00938 [    13]: 12220
      0.00838 [    22]: 21220
      0.00562 [    14]: 20122
      0.00358 [    20]: 21202
      0.00347 [    29]: 22210
      0.00299 [    25]: 22102
      0.00265 [    24]: 22021
ROOT   9:  E=   -2467.3319541922 Eh  1.218 eV   9825.6 cm**-1
      0.13929 [    18]: 21112
      0.12140 [    24]: 22021
      0.11902 [    15]: 20212
      0.07899 [     6]: 11212
      0.07522 [     2]: 02212
      0.06356 [    10]: 12121
      0.05200 [     3]: 02221
      0.05057 [    20]: 21202
      0.04597 [     9]: 12112
      0.04229 [    12]: 12211
      0.03193 [    19]: 21121
      0.02605 [     5]: 11122
      0.02559 [    17]: 21022
      0.02512 [     7]: 11221
      0.02325 [    11]: 12202
      0.02221 [    21]: 21211
      0.01409 [    26]: 22111
      0.01398 [    28]: 22201
      0.00805 [     4]: 10222
      0.00638 [    23]: 22012
      0.00514 [     0]: 01222
      0.00353 [     8]: 12022
      0.00341 [    14]: 20122
ROOT  10:  E=   -2467.3214783747 Eh  1.503 eV  12124.8 cm**-1
      0.36490 [    10]: 12121
      0.15911 [    19]: 21121
      0.09001 [    24]: 22021
      0.06421 [     3]: 02221
      0.05631 [    12]: 12211
      0.05505 [     5]: 11122
      0.04356 [    21]: 21211
      0.03184 [     7]: 11221
      0.02766 [     1]: 02122
      0.01807 [    16]: 20221
      0.01512 [    26]: 22111
      0.01174 [    25]: 22102
      0.00996 [     4]: 10222
      0.00934 [    11]: 12202
      0.00870 [     6]: 11212
      0.00766 [    28]: 22201
      0.00596 [    17]: 21022
      0.00551 [    23]: 22012
      0.00460 [    15]: 20212
ROOT  11:  E=   -2467.3204382065 Eh  1.532 eV  12353.1 cm**-1
      0.15912 [    27]: 22120
      0.12936 [    13]: 12220
      0.12355 [     8]: 12022
      0.07436 [    22]: 21220
      0.06654 [     1]: 02122
      0.05526 [    19]: 21121
      0.04081 [    14]: 20122
      0.04055 [     7]: 11221
      0.03629 [    18]: 21112
      0.03540 [     9]: 12112
      0.03471 [    29]: 22210
      0.03346 [    20]: 21202
      0.03241 [     6]: 11212
      0.02531 [    12]: 12211
      0.02368 [    11]: 12202
      0.02037 [     2]: 02212
      0.01696 [    17]: 21022
      0.01653 [    10]: 12121
      0.01423 [     5]: 11122
      0.00666 [     3]: 02221
      0.00596 [     4]: 10222
ROOT  12:  E=   -2467.3083198731 Eh  1.861 eV  15012.7 cm**-1
      0.16701 [     5]: 11122
      0.14160 [     9]: 12112
      0.09883 [    12]: 12211
      0.08971 [    26]: 22111
      0.08346 [    17]: 21022
      0.06368 [    18]: 21112
      0.06299 [     6]: 11212
      0.05381 [    19]: 21121
      0.04275 [     1]: 02122
      0.03453 [    21]: 21211
      0.02961 [     0]: 01222
      0.02414 [     7]: 11221
      0.02135 [    11]: 12202
      0.01823 [    28]: 22201
      0.01762 [    16]: 20221
      0.01052 [    15]: 20212
      0.00925 [    29]: 22210
      0.00885 [     2]: 02212
      0.00530 [    27]: 22120
      0.00487 [    10]: 12121
      0.00400 [    13]: 12220
ROOT  13:  E=   -2467.3080095812 Eh  1.870 eV  15080.8 cm**-1
      0.12647 [     9]: 12112
      0.12412 [    14]: 20122
      0.07785 [     7]: 11221
      0.07717 [    19]: 21121
      0.07343 [    12]: 12211
      0.07117 [     2]: 02212
      0.05719 [    22]: 21220
      0.05061 [    23]: 22012
      0.04457 [     8]: 12022
      0.04232 [     4]: 10222
      0.04180 [    10]: 12121
      0.02957 [     6]: 11212
      0.02544 [    27]: 22120
      0.02397 [    17]: 21022
      0.02075 [    26]: 22111
      0.01922 [    18]: 21112
      0.01667 [     0]: 01222
      0.01408 [     3]: 02221
      0.01252 [    29]: 22210
      0.01024 [    15]: 20212
      0.00997 [     1]: 02122
      0.00826 [    13]: 12220
      0.00713 [    21]: 21211
      0.00448 [    25]: 22102
      0.00378 [    16]: 20221
      0.00367 [    11]: 12202
ROOT  14:  E=   -2467.3076717882 Eh  1.879 eV  15155.0 cm**-1
      0.15691 [    18]: 21112
      0.14946 [    11]: 12202
      0.12117 [    21]: 21211
      0.08844 [     6]: 11212
      0.07569 [    26]: 22111
      0.07409 [    14]: 20122
      0.05471 [     2]: 02212
      0.05223 [    12]: 12211
      0.04769 [    10]: 12121
      0.04416 [    19]: 21121
      0.04222 [    15]: 20212
      0.01720 [    28]: 22201
      0.01451 [     5]: 11122
      0.01436 [     9]: 12112
      0.00887 [    20]: 21202
      0.00670 [     7]: 11221
      0.00603 [     0]: 01222
      0.00519 [    29]: 22210
      0.00505 [    16]: 20221
      0.00485 [     4]: 10222
      0.00309 [    13]: 12220
ROOT  15:  E=   -2467.3066532378 Eh  1.907 eV  15378.5 cm**-1
      0.10383 [    25]: 22102
      0.08895 [     6]: 11212
      0.07891 [    16]: 20221
      0.07438 [    18]: 21112
      0.07209 [    20]: 21202
      0.07025 [    11]: 12202
      0.06671 [     7]: 11221
      0.05934 [    19]: 21121
      0.05624 [     4]: 10222
      0.05570 [    28]: 22201
      0.03716 [     9]: 12112
      0.03688 [    14]: 20122
      0.03509 [    12]: 12211
      0.02569 [    22]: 21220
      0.02434 [     5]: 11122
      0.02201 [     2]: 02212
      0.01846 [    24]: 22021
      0.01407 [     3]: 02221
      0.01256 [    15]: 20212
      0.00938 [     1]: 02122
      0.00894 [     0]: 01222
      0.00873 [    17]: 21022
      0.00482 [    23]: 22012
      0.00426 [    29]: 22210
      0.00410 [    10]: 12121
      0.00254 [    26]: 22111
ROOT  16:  E=   -2467.2962562989 Eh  2.190 eV  17660.4 cm**-1
      0.22226 [     5]: 11122
      0.11980 [    10]: 12121
      0.10162 [    22]: 21220
      0.07300 [     6]: 11212
      0.05123 [    16]: 20221
      0.04960 [     7]: 11221
      0.04735 [    19]: 21121
      0.04631 [     9]: 12112
      0.04277 [    21]: 21211
      0.03641 [     1]: 02122
      0.03626 [    23]: 22012
      0.02956 [    20]: 21202
      0.02643 [    18]: 21112
      0.02279 [    13]: 12220
      0.02227 [    12]: 12211
      0.01464 [     3]: 02221
      0.01313 [    17]: 21022
      0.01109 [    25]: 22102
      0.00840 [    29]: 22210
      0.00729 [     2]: 02212
      0.00460 [    15]: 20212
      0.00452 [    26]: 22111
      0.00332 [    14]: 20122
ROOT  17:  E=   -2467.2960121813 Eh  2.196 eV  17714.0 cm**-1
      0.17818 [    12]: 12211
      0.13517 [     9]: 12112
      0.13280 [    26]: 22111
      0.11592 [    18]: 21112
      0.07099 [    29]: 22210
      0.06268 [    19]: 21121
      0.06264 [    17]: 21022
      0.02843 [     1]: 02122
      0.02424 [     5]: 11122
      0.02323 [     4]: 10222
      0.02275 [     0]: 01222
      0.02187 [     2]: 02212
      0.01468 [    21]: 21211
      0.01272 [     6]: 11212
      0.01247 [     3]: 02221
      0.01225 [    10]: 12121
      0.01009 [    15]: 20212
      0.00879 [     7]: 11221
      0.00852 [    14]: 20122
      0.00794 [    28]: 22201
      0.00750 [    27]: 22120
      0.00688 [     8]: 12022
      0.00599 [    25]: 22102
      0.00521 [    20]: 21202
      0.00435 [    22]: 21220
      0.00291 [    11]: 12202
ROOT  18:  E=   -2467.2911839887 Eh  2.328 eV  18773.6 cm**-1
      0.28816 [    18]: 21112
      0.14386 [     6]: 11212
      0.09445 [     2]: 02212
      0.08044 [    15]: 20212
      0.05008 [     9]: 12112
      0.04873 [    16]: 20221
      0.03601 [    11]: 12202
      0.03033 [    26]: 22111
      0.02934 [    24]: 22021
      0.02504 [    21]: 21211
      0.02385 [     0]: 01222
      0.01952 [     3]: 02221
      0.01833 [     7]: 11221
      0.01757 [     1]: 02122
      0.01581 [    17]: 21022
      0.01548 [    12]: 12211
      0.01412 [    20]: 21202
      0.01341 [     5]: 11122
      0.00644 [    14]: 20122
      0.00571 [     8]: 12022
      0.00512 [    23]: 22012
      0.00506 [    25]: 22102
      0.00419 [    10]: 12121
ROOT  19:  E=   -2467.2908892928 Eh  2.336 eV  18838.3 cm**-1
      0.12238 [    11]: 12202
      0.11354 [    25]: 22102
      0.09075 [    18]: 21112
      0.08709 [     7]: 11221
      0.06511 [    15]: 20212
      0.05616 [     0]: 01222
      0.05179 [     4]: 10222
      0.05176 [     5]: 11122
      0.04783 [    24]: 22021
      0.04634 [     6]: 11212
      0.04607 [    26]: 22111
      0.03464 [    17]: 21022
      0.03365 [    10]: 12121
      0.03064 [    21]: 21211
      0.02679 [     3]: 02221
      0.01889 [    19]: 21121
      0.01750 [     1]: 02122
      0.01556 [    14]: 20122
      0.01079 [     9]: 12112
      0.00734 [    23]: 22012
      0.00640 [     2]: 02212
      0.00469 [     8]: 12022
      0.00342 [    12]: 12211
      0.00328 [    27]: 22120
      0.00297 [    29]: 22210
ROOT  20:  E=   -2467.2888563851 Eh  2.391 eV  19284.5 cm**-1
      0.20640 [     6]: 11212
      0.12063 [    20]: 21202
      0.06802 [    28]: 22201
      0.06476 [    13]: 12220
      0.05538 [    27]: 22120
      0.05336 [    25]: 22102
      0.05326 [    21]: 21211
      0.04785 [     9]: 12112
      0.04080 [    16]: 20221
      0.03648 [    18]: 21112
      0.03548 [     5]: 11122
      0.03087 [    26]: 22111
      0.02754 [     4]: 10222
      0.02743 [     7]: 11221
      0.02272 [    12]: 12211
      0.02124 [    23]: 22012
      0.01533 [    14]: 20122
      0.01426 [    17]: 21022
      0.00944 [    11]: 12202
      0.00818 [     0]: 01222
      0.00812 [    19]: 21121
      0.00673 [     1]: 02122
      0.00663 [    15]: 20212
      0.00659 [     2]: 02212
      0.00547 [    24]: 22021
      0.00387 [    29]: 22210
ROOT  21:  E=   -2467.2860158499 Eh  2.468 eV  19907.9 cm**-1
      0.32818 [     6]: 11212
      0.21510 [    15]: 20212
      0.05512 [    19]: 21121
      0.04702 [     7]: 11221
      0.04294 [     4]: 10222
      0.03858 [    23]: 22012
      0.03180 [     2]: 02212
      0.03102 [     5]: 11122
      0.02986 [    21]: 21211
      0.02479 [     9]: 12112
      0.02396 [    25]: 22102
      0.02200 [    29]: 22210
      0.02024 [    14]: 20122
      0.01708 [    18]: 21112
      0.01619 [    17]: 21022
      0.01052 [    16]: 20221
      0.00906 [    10]: 12121
      0.00692 [    26]: 22111
      0.00648 [    28]: 22201
      0.00485 [    22]: 21220
      0.00477 [     8]: 12022
      0.00462 [    12]: 12211
      0.00259 [    13]: 12220
ROOT  22:  E=   -2467.2858352832 Eh  2.473 eV  19947.5 cm**-1
      0.30188 [    20]: 21202
      0.16482 [    26]: 22111
      0.09084 [    11]: 12202
      0.08416 [    18]: 21112
      0.06335 [    12]: 12211
      0.05761 [     9]: 12112
      0.04945 [     0]: 01222
      0.04278 [    28]: 22201
      0.02803 [     7]: 11221
      0.02322 [    19]: 21121
      0.02301 [    23]: 22012
      0.01437 [     6]: 11212
      0.01228 [    15]: 20212
      0.01225 [    10]: 12121
      0.00744 [    14]: 20122
      0.00630 [     4]: 10222
      0.00518 [    21]: 21211
      0.00368 [    24]: 22021
      0.00318 [     5]: 11122
ROOT  23:  E=   -2467.2844383118 Eh  2.511 eV  20254.1 cm**-1
      0.27260 [    21]: 21211
      0.10890 [    12]: 12211
      0.10387 [    16]: 20221
      0.09736 [    10]: 12121
      0.09099 [    28]: 22201
      0.07958 [    24]: 22021
      0.06448 [     3]: 02221
      0.04005 [    19]: 21121
      0.02043 [     1]: 02122
      0.01609 [    29]: 22210
      0.01595 [    15]: 20212
      0.00996 [     6]: 11212
      0.00918 [    20]: 21202
      0.00862 [     2]: 02212
      0.00853 [    27]: 22120
      0.00781 [     5]: 11122
      0.00745 [    18]: 21112
      0.00720 [     8]: 12022
      0.00701 [    17]: 21022
      0.00665 [    14]: 20122
      0.00323 [    13]: 12220
      0.00309 [     9]: 12112
      0.00298 [    23]: 22012
      0.00276 [    26]: 22111
ROOT  24:  E=   -2467.2835728303 Eh  2.535 eV  20444.1 cm**-1
      0.48340 [    21]: 21211
      0.17895 [    12]: 12211
      0.07800 [    19]: 21121
      0.07079 [    29]: 22210
      0.03826 [    27]: 22120
      0.02901 [    15]: 20212
      0.01325 [    13]: 12220
      0.01199 [    11]: 12202
      0.01143 [     6]: 11212
      0.00911 [     8]: 12022
      0.00817 [    25]: 22102
      0.00787 [     1]: 02122
      0.00728 [    20]: 21202
      0.00723 [     0]: 01222
      0.00630 [    10]: 12121
      0.00519 [    14]: 20122
      0.00514 [     7]: 11221
      0.00510 [    18]: 21112
      0.00491 [     2]: 02212
      0.00447 [     4]: 10222
      0.00367 [    23]: 22012
ROOT  25:  E=   -2467.2775347712 Eh  2.699 eV  21769.3 cm**-1
      0.16706 [    28]: 22201
      0.10404 [    21]: 21211
      0.08358 [    22]: 21220
      0.07604 [     7]: 11221
      0.06186 [     8]: 12022
      0.05752 [    27]: 22120
      0.05235 [    14]: 20122
      0.04448 [    18]: 21112
      0.03978 [    11]: 12202
      0.03504 [    16]: 20221
      0.03378 [     6]: 11212
      0.03353 [     1]: 02122
      0.03048 [    19]: 21121
      0.02819 [    13]: 12220
      0.02758 [     9]: 12112
      0.02638 [    29]: 22210
      0.02411 [     3]: 02221
      0.02359 [    26]: 22111
      0.02147 [     2]: 02212
      0.00815 [    12]: 12211
      0.00767 [    10]: 12121
      0.00709 [    17]: 21022
ROOT  26:  E=   -2467.2693623727 Eh  2.921 eV  23562.9 cm**-1
      0.20986 [    26]: 22111
      0.16931 [    12]: 12211
      0.15412 [    22]: 21220
      0.05509 [    13]: 12220
      0.05308 [     0]: 01222
      0.03870 [     5]: 11122
      0.03530 [    24]: 22021
      0.03162 [    10]: 12121
      0.02958 [    18]: 21112
      0.02643 [     7]: 11221
      0.02555 [    16]: 20221
      0.02451 [    19]: 21121
      0.01936 [    21]: 21211
      0.01794 [     8]: 12022
      0.01629 [    23]: 22012
      0.01589 [    29]: 22210
      0.01513 [    17]: 21022
      0.01113 [     6]: 11212
      0.00905 [    15]: 20212
      0.00687 [     2]: 02212
      0.00661 [    20]: 21202
      0.00619 [    27]: 22120
      0.00594 [     4]: 10222
      0.00577 [     1]: 02122
      0.00454 [     3]: 02221
      0.00298 [    28]: 22201
      0.00279 [    11]: 12202
ROOT  27:  E=   -2467.2692547968 Eh  2.924 eV  23586.5 cm**-1
      0.19633 [    29]: 22210
      0.16400 [     7]: 11221
      0.09906 [    19]: 21121
      0.06840 [    21]: 21211
      0.06833 [    23]: 22012
      0.06277 [     9]: 12112
      0.05131 [    27]: 22120
      0.05016 [    10]: 12121
      0.04193 [     2]: 02212
      0.03987 [    26]: 22111
      0.03230 [     3]: 02221
      0.01448 [    22]: 21220
      0.01325 [    14]: 20122
      0.01293 [    13]: 12220
      0.01247 [     4]: 10222
      0.01108 [     6]: 11212
      0.00876 [    16]: 20221
      0.00783 [    17]: 21022
      0.00763 [     5]: 11122
      0.00757 [    12]: 12211
      0.00710 [    24]: 22021
      0.00452 [    18]: 21112
      0.00386 [    15]: 20212
      0.00363 [     0]: 01222
      0.00357 [    25]: 22102
      0.00308 [     1]: 02122
ROOT  28:  E=   -2467.2373212606 Eh  3.793 eV  30595.1 cm**-1
      0.11303 [    21]: 21211
      0.09560 [     7]: 11221
      0.09509 [    26]: 22111
      0.08546 [     6]: 11212
      0.07734 [    12]: 12211
      0.07182 [    10]: 12121
      0.05944 [     3]: 02221
      0.05928 [    18]: 21112
      0.05759 [    24]: 22021
      0.05058 [    14]: 20122
      0.03653 [    25]: 22102
      0.02899 [    20]: 21202
      0.02707 [     4]: 10222
      0.02469 [     9]: 12112
      0.02286 [     5]: 11122
      0.01655 [    15]: 20212
      0.01180 [    16]: 20221
      0.01160 [    29]: 22210
      0.01079 [    28]: 22201
      0.00992 [    17]: 21022
      0.00813 [     8]: 12022
      0.00732 [     2]: 02212
      0.00541 [    19]: 21121
      0.00529 [    11]: 12202
      0.00286 [    22]: 21220
      0.00278 [    23]: 22012
ROOT  29:  E=   -2467.2288110681 Eh  4.025 eV  32462.9 cm**-1
      0.20112 [    26]: 22111
      0.19258 [    12]: 12211
      0.07350 [    24]: 22021
      0.07052 [     4]: 10222
      0.06692 [     0]: 01222
      0.05854 [    18]: 21112
      0.05086 [    23]: 22012
      0.04461 [     3]: 02221
      0.03493 [    21]: 21211
      0.02813 [    19]: 21121
      0.02310 [     7]: 11221
      0.02122 [     9]: 12112
      0.02023 [    25]: 22102
      0.02018 [    28]: 22201
      0.01956 [    17]: 21022
      0.01627 [    22]: 21220
      0.01281 [     8]: 12022
      0.01269 [    16]: 20221
      0.00735 [    11]: 12202
      0.00735 [     6]: 11212
      0.00535 [    10]: 12121
      0.00442 [    15]: 20212
      0.00283 [    14]: 20122
ROOT  30:  E=   -2467.2281000045 Eh  4.044 eV  32619.0 cm**-1
      0.11291 [    19]: 21121
      0.11116 [     7]: 11221
      0.09040 [    23]: 22012
      0.08115 [    27]: 22120
      0.07614 [     0]: 01222
      0.06889 [    16]: 20221
      0.05563 [     5]: 11122
      0.05538 [    21]: 21211
      0.05262 [     3]: 02221
      0.04714 [    13]: 12220
      0.03861 [    26]: 22111
      0.03578 [    10]: 12121
      0.03534 [     6]: 11212
      0.02585 [    29]: 22210
      0.02145 [     2]: 02212
      0.01608 [    28]: 22201
      0.01145 [    24]: 22021
      0.01061 [    12]: 12211
      0.00873 [    15]: 20212
      0.00776 [     1]: 02122
      0.00710 [    25]: 22102
      0.00613 [     8]: 12022
      0.00610 [     9]: 12112
      0.00585 [    18]: 21112
      0.00455 [    14]: 20122
ROOT  31:  E=   -2467.2182975469 Eh  4.311 eV  34770.4 cm**-1
      0.18492 [    25]: 22102
      0.13078 [     4]: 10222
      0.09696 [     7]: 11221
      0.09551 [    27]: 22120
      0.07287 [    13]: 12220
      0.05832 [     6]: 11212
      0.04166 [    19]: 21121
      0.03497 [     9]: 12112
      0.03438 [    26]: 22111
      0.03076 [     0]: 01222
      0.03061 [    10]: 12121
      0.02349 [    14]: 20122
      0.02316 [    11]: 12202
      0.02251 [    23]: 22012
      0.02051 [    18]: 21112
      0.01377 [     3]: 02221
      0.01268 [    15]: 20212
      0.01263 [    22]: 21220
      0.01260 [    20]: 21202
      0.00964 [     5]: 11122
      0.00568 [    12]: 12211
      0.00558 [     2]: 02212
      0.00544 [    16]: 20221
      0.00522 [     8]: 12022
      0.00495 [     1]: 02122
      0.00476 [    24]: 22021
      0.00361 [    21]: 21211
ROOT  32:  E=   -2467.2167621021 Eh  4.353 eV  35107.4 cm**-1
      0.20195 [     7]: 11221
      0.18996 [    10]: 12121
      0.14605 [    28]: 22201
      0.07903 [    16]: 20221
      0.07114 [    26]: 22111
      0.05974 [    20]: 21202
      0.04144 [    24]: 22021
      0.03253 [    25]: 22102
      0.02712 [    18]: 21112
      0.02465 [     6]: 11212
      0.02221 [     0]: 01222
      0.02080 [    14]: 20122
      0.01688 [    22]: 21220
      0.01378 [    19]: 21121
      0.00838 [     8]: 12022
      0.00723 [    13]: 12220
      0.00669 [     4]: 10222
      0.00633 [     5]: 11122
      0.00463 [    11]: 12202
      0.00411 [    17]: 21022
      0.00354 [     3]: 02221
ROOT  33:  E=   -2467.2152531841 Eh  4.394 eV  35438.5 cm**-1
      0.14266 [    29]: 22210
      0.13503 [     7]: 11221
      0.10748 [    19]: 21121
      0.08192 [    26]: 22111
      0.07744 [     0]: 01222
      0.07000 [    23]: 22012
      0.05817 [    10]: 12121
      0.05483 [     3]: 02221
      0.04786 [    21]: 21211
      0.03970 [    18]: 21112
      0.02933 [     9]: 12112
      0.02577 [    22]: 21220
      0.02495 [    16]: 20221
      0.01820 [     5]: 11122
      0.01743 [    12]: 12211
      0.01663 [    24]: 22021
      0.01169 [     8]: 12022
      0.00860 [    17]: 21022
      0.00841 [     2]: 02212
      0.00579 [     6]: 11212
      0.00545 [    14]: 20122
      0.00342 [     1]: 02122
      0.00335 [    13]: 12220
      0.00281 [    28]: 22201
ROOT  34:  E=   -2467.2148936763 Eh  4.404 eV  35517.4 cm**-1
      0.17391 [    26]: 22111
      0.12466 [     7]: 11221
      0.10549 [    22]: 21220
      0.09600 [     5]: 11122
      0.09079 [    13]: 12220
      0.07322 [    12]: 12211
      0.04740 [    21]: 21211
      0.03693 [    23]: 22012
      0.03609 [     9]: 12112
      0.02412 [    18]: 21112
      0.02386 [     4]: 10222
      0.02358 [    27]: 22120
      0.02096 [    17]: 21022
      0.01783 [     0]: 01222
      0.01726 [     6]: 11212
      0.01534 [    28]: 22201
      0.01465 [    10]: 12121
      0.01207 [     1]: 02122
      0.00758 [     8]: 12022
      0.00710 [    29]: 22210
      0.00623 [    24]: 22021
      0.00564 [    19]: 21121
      0.00507 [    15]: 20212
      0.00442 [    25]: 22102
      0.00363 [    11]: 12202
      0.00272 [     3]: 02221
ROOT  35:  E=   -2467.1460885159 Eh  6.276 eV  50618.4 cm**-1
      0.17736 [    25]: 22102
      0.14952 [     4]: 10222
      0.06077 [    13]: 12220
      0.05807 [     0]: 01222
      0.05625 [    27]: 22120
      0.05463 [    11]: 12202
      0.05025 [    14]: 20122
      0.04871 [    20]: 21202
      0.04666 [     1]: 02122
      0.03365 [    15]: 20212
      0.03288 [     7]: 11221
      0.03099 [    28]: 22201
      0.03051 [    23]: 22012
      0.02947 [    17]: 21022
      0.02296 [    21]: 21211
      0.02093 [    18]: 21112
      0.01849 [     8]: 12022
      0.01837 [     6]: 11212
      0.01039 [     9]: 12112
      0.00701 [    16]: 20221
      0.00649 [    22]: 21220
      0.00637 [    29]: 22210
      0.00597 [    19]: 21121
      0.00582 [    10]: 12121
      0.00571 [    26]: 22111
      0.00405 [     2]: 02212
      0.00363 [     5]: 11122
      0.00271 [     3]: 02221
ROOT  36:  E=   -2467.1308915735 Eh  6.689 eV  53953.8 cm**-1
      0.22018 [    29]: 22210
      0.16380 [    15]: 20212
      0.13272 [    23]: 22012
      0.10391 [     2]: 02212
      0.04965 [    19]: 21121
      0.04092 [    22]: 21220
      0.03496 [    14]: 20122
      0.03236 [     3]: 02221
      0.02529 [     0]: 01222
      0.02357 [     4]: 10222
      0.02263 [     7]: 11221
      0.01862 [     1]: 02122
      0.01714 [    26]: 22111
      0.01554 [    20]: 21202
      0.01455 [     5]: 11122
      0.01432 [    12]: 12211
      0.01298 [    25]: 22102
      0.01180 [     9]: 12112
      0.00829 [    16]: 20221
      0.00628 [    10]: 12121
      0.00627 [    18]: 21112
      0.00609 [    24]: 22021
      0.00600 [    13]: 12220
      0.00481 [     6]: 11212
      0.00276 [    17]: 21022
ROOT  37:  E=   -2467.1265729607 Eh  6.807 eV  54901.6 cm**-1
      0.14000 [    22]: 21220
      0.11425 [     0]: 01222
      0.10088 [    20]: 21202
      0.08398 [    17]: 21022
      0.08311 [    13]: 12220
      0.05725 [    26]: 22111
      0.04520 [    11]: 12202
      0.04192 [    23]: 22012
      0.03939 [    12]: 12211
      0.03909 [     8]: 12022
      0.03846 [    28]: 22201
      0.02816 [     7]: 11221
      0.02234 [    16]: 20221
      0.02154 [     3]: 02221
      0.02133 [    21]: 21211
      0.01556 [    18]: 21112
      0.01506 [    27]: 22120
      0.01464 [     4]: 10222
      0.01381 [    10]: 12121
      0.01273 [    29]: 22210
      0.01123 [    19]: 21121
      0.00949 [     6]: 11212
      0.00864 [    15]: 20212
      0.00656 [     5]: 11122
      0.00425 [     9]: 12112
      0.00386 [    25]: 22102
      0.00326 [     1]: 02122
ROOT  38:  E=   -2467.1006168140 Eh  7.513 eV  60598.3 cm**-1
      0.20792 [     3]: 02221
      0.20067 [    24]: 22021
      0.13439 [    16]: 20221
      0.12432 [    28]: 22201
      0.09210 [    10]: 12121
      0.04228 [    19]: 21121
      0.02529 [     5]: 11122
      0.02347 [    17]: 21022
      0.02103 [    18]: 21112
      0.02024 [    12]: 12211
      0.01454 [     4]: 10222
      0.01371 [     8]: 12022
      0.01220 [     1]: 02122
      0.00888 [    20]: 21202
      0.00870 [     6]: 11212
      0.00869 [     9]: 12112
      0.00844 [     2]: 02212
      0.00785 [    22]: 21220
      0.00597 [    21]: 21211
      0.00532 [    13]: 12220
      0.00395 [    26]: 22111
      0.00375 [     0]: 01222
ROOT  39:  E=   -2467.0974258410 Eh  7.600 eV  61298.6 cm**-1
      0.25244 [    27]: 22120
      0.22296 [    13]: 12220
      0.07382 [    25]: 22102
      0.06950 [     4]: 10222
      0.06181 [    22]: 21220
      0.05118 [    14]: 20122
      0.03837 [    29]: 22210
      0.03241 [    11]: 12202
      0.02881 [     1]: 02122
      0.02661 [    19]: 21121
      0.01993 [    12]: 12211
      0.01857 [     8]: 12022
      0.01812 [     0]: 01222
      0.01725 [    10]: 12121
      0.01689 [    21]: 21211
      0.00977 [     5]: 11122
      0.00802 [     7]: 11221
      0.00646 [     9]: 12112
      0.00598 [    20]: 21202
      0.00574 [    23]: 22012
      0.00460 [     6]: 11212
      0.00300 [    15]: 20212
      0.00276 [     3]: 02221

                 <<<<<<<<<<<<<<<<<<INITIAL CI STATE CHECK>>>>>>>>>>>>>>>>>>

   E(CAS)= -2467.326874969 Eh DE=    0.000000e+00
   --- Energy gap subspaces: Ext-Act = 1.643   Act-Int = -0.204
   --- current l-shift: Up(Ext-Act) = 1.00   Dn(Act-Int) = 2.20
[...]
 3 106   43859.2    228.0   0.00000   0.00003   0.00000   0.00000000000149   0.00008   0.99404   0.00589
 3 107   43859.2    228.0   0.00000   0.00000   0.00000   0.00000000000004   0.01338   0.83304   0.15358
 3 108   44152.0    226.5   0.00000   0.00000   0.00000   0.00000000000008   0.00221   0.94067   0.05712
 3 109   44152.0    226.5   0.00000   0.00000   0.00000   0.00000000000002   0.00467   0.58260   0.41273
 3 110   64422.8    155.2   0.00000   0.00000   0.00000   0.00000000000013   0.00003   0.95895   0.04103
 3 111   64422.8    155.2   0.00000   0.00000   0.00000   0.00000000000004   0.00604   0.90631   0.08764
 3 112   64725.3    154.5   0.00000   0.00000   0.00000   0.00000000000016   0.00082   0.92331   0.07587
 3 113   64725.3    154.5   0.00000   0.00000   0.00000   0.00000000000014   0.00097   0.86224   0.13679
 3 114   65247.0    153.3   0.00000   0.00000   0.00000   0.00000000000016   0.00318   0.58064   0.41618
 3 115   65247.0    153.3   0.00000   0.00000   0.00000   0.00000000000002   0.00626   0.08646   0.90728
 3 116   69661.6    143.6   0.00000   0.00000   0.00000   0.00000000000003   0.01297   0.09131   0.89572
 3 117   69661.6    143.6   0.00000   0.00000   0.00000   0.00000000000001   0.00915   0.00621   0.98464
 3 118   70144.0    142.6   0.00000   0.00006   0.00000   0.00000000000339   0.00003   0.99469   0.00528
 3 119   70144.0    142.6   0.00000   0.00000   0.00000   0.00000000000010   0.00681   0.86304   0.13014

Done

                 =============================
                 AB INITIO LIGAND FIELD THEORY
                       d7 configuration
                          2 CI blocks
                         MOs 41 to 45
                 =============================

Metal/Atom center is atom 0
orbital phases =   1.0   1.0   1.0   1.0   1.0 
Metal/Atom d-orbital parts of active orbitals
Shell 15
             41        42        43        44        45
dz2     :  0.606042 -0.000068 -0.000004 -0.000924  0.000022
dxz     : -0.006586  0.613787  0.000092 -0.000237  0.000197
dyz     :  0.000008  0.000475  0.614431 -0.000049 -0.000020
dx2y2   :  0.029950  0.011641 -0.000381  0.588834  0.000063
dxy     :  0.002548 -0.000223  0.001151 -0.003007  0.613746
Shell 16
             41        42        43        44        45
dz2     :  0.404392  0.000442  0.000034  0.000560 -0.000008
dxz     : -0.004012  0.406076 -0.000048 -0.000115  0.000198
dyz     :  0.000120  0.000192  0.410645 -0.000003  0.000234
dx2y2   :  0.020888  0.007596 -0.000090  0.391466  0.000147
dxy     :  0.001717 -0.000079  0.001037 -0.001928  0.406266
Shell 17
             41        42        43        44        45
dz2     :  0.218236  0.000155 -0.000483 -0.002332 -0.000254
dxz     : -0.001762  0.224630 -0.000508 -0.000231 -0.001767
dyz     : -0.000530 -0.000088  0.219453  0.000354 -0.000296
dx2y2   :  0.008993  0.004238  0.000111  0.212427 -0.000101
dxy     :  0.000410 -0.001923 -0.000032 -0.001208  0.218732
Shell 20
             41        42        43        44        45
dz2     :  0.009686 -0.002003  0.000568  0.013417 -0.000637
dxz     : -0.000153  0.007806 -0.001168  0.004770  0.000667
dyz     :  0.000649 -0.000311  0.017769  0.000476 -0.002251
dx2y2   :  0.013232  0.002091  0.000599 -0.007291 -0.001351
dxy     :  0.000314  0.000668  0.000868 -0.001221  0.010016

Adjusting phases of one-electron integrals               ... done
Adjusting phases of two-electron integrals               ... done


-----------------------------------------------------------------
Computing F0s from 2-electron integrals                  ... done 
-----------------------------------------------------------------
F0   =  0.878467983 a.u. =    23.904 eV =  192801.4 cm**-1
-----------------------------------------------------------------

Preparing for fit                                        ... done
Making fit matrices                                      ... done
Calculating ab initio Hamiltonian matrices               ... 
Calculating fit matrices                                 ... done
Fitting                                                  ... done

------------------------------
AILFT MATRIX ELEMENTS (CASSCF)
--------------------------------

Ligand field one-electron matrix VLFT (a.u.) : 
Orbital          dz2        dxz        dyz        dx2-y2     dxy
  dz2         -5.798108   0.000350   0.000170  -0.009881  -0.000320 
  dxz          0.000350  -5.793662   0.000516  -0.003050   0.001509 
  dyz          0.000170   0.000516  -5.803118  -0.000477  -0.000502 
  dx2-y2      -0.009881  -0.003050  -0.000477  -5.783318   0.000784 
  dxy         -0.000320   0.001509  -0.000502   0.000784  -5.788804 

-------------------------------------------------
Slater-Condon Parameters (electronic repulsion) : 
-------------------------------------------------
F0dd(from 2el Ints)     =  0.878467983 a.u. =    23.904 eV =  192801.4 cm**-1 (fixed)
F2dd                    =  0.395643153 a.u. =    10.766 eV =   86833.6 cm**-1
F4dd                    =  0.252303344 a.u. =     6.866 eV =   55374.2 cm**-1
-------------------
Racah Parameters : 
-------------------
A(F0dd from 2el Ints)   =  0.850434278 a.u. =    23.141 eV =  186648.7 cm**-1
B                       =  0.005213768 a.u. =     0.142 eV =    1144.3 cm**-1
C                       =  0.020024075 a.u. =     0.545 eV =    4394.8 cm**-1
C/B                     =  3.841
-------------------------------------------------------------------------------

-----------------------------------------
The ligand field one electron eigenfunctions:
-----------------------------------------
Orbital    Energy (eV)  Energy(cm-1)      dz2        dxz        dyz        dx2-y2     dxy
    1          0.000        0.0         0.858080   0.126510  -0.227470   0.441888  -0.026200 
    2          0.000        1.4        -0.201808   0.027747  -0.971256  -0.118104  -0.034892 
    3          0.236     1906.3         0.187235  -0.936217  -0.061757  -0.111405   0.268728 
    4          0.403     3252.3        -0.012592   0.275885  -0.022882  -0.009345   0.960790 
    5          0.691     5570.3        -0.433309  -0.174956  -0.024129   0.882206   0.052565 
Ligand field orbitals were stored in rho.casscf.lft.gbw

Calculating ligand field Hamiltonian matrices          ... done
Diagonalizing and fitting the ligand field Hamiltonian ... done
Calculating statistical parameters                     ... done

Reference energy AI-LFT =    -22.647129216 au
Reference energy AI     =    -22.646075348 au

------------------------------------------------
COMPARISON OF AB INITIO AND LIGAND FIELD RESULTS
------------------------------------------------

Block   1
---------
   AI-Root   0: E(AI)=    0.000 eV -> LF-Root   0:     0.000 eV    S= 0.994 Delta=    0.000 eV
   AI-Root   1: E(AI)=    0.006 eV -> LF-Root   1:     0.008 eV    S= 0.995 Delta=   -0.002 eV
   AI-Root   2: E(AI)=    0.203 eV -> LF-Root   2:     0.180 eV    S= 0.989 Delta=    0.023 eV
   AI-Root   3: E(AI)=    0.258 eV -> LF-Root   3:     0.253 eV    S= 0.790 Delta=    0.006 eV
   AI-Root   4: E(AI)=    0.259 eV -> LF-Root   4:     0.267 eV    S= 0.868 Delta=   -0.008 eV
   AI-Root   5: E(AI)=    0.281 eV -> LF-Root   5:     0.392 eV    S= 0.996 Delta=   -0.111 eV
   AI-Root   6: E(AI)=    0.296 eV -> LF-Root   6:     0.396 eV    S= 0.903 Delta=   -0.100 eV
   AI-Root   7: E(AI)=    2.087 eV -> LF-Root   7:     1.998 eV    S= 0.999 Delta=    0.090 eV
   AI-Root   8: E(AI)=    2.457 eV -> LF-Root   8:     2.527 eV    S= 0.999 Delta=   -0.069 eV
   AI-Root   9: E(AI)=    2.595 eV -> LF-Root   9:     2.699 eV    S= 0.998 Delta=   -0.104 eV
   (Dropping RMS error for the reference energy)
   RMS error for this block =     0.072 eV =     580.7 cm**-1 

Block   2
---------
   AI-Root   0: E(AI)=    2.191 eV -> LF-Root   0:     2.225 eV    S= 0.871 Delta=   -0.034 eV
   AI-Root   1: E(AI)=    2.194 eV -> LF-Root   1:     2.223 eV    S= 0.873 Delta=   -0.029 eV
   AI-Root   2: E(AI)=    2.227 eV -> LF-Root   2:     2.287 eV    S= 0.754 Delta=   -0.060 eV
   AI-Root   3: E(AI)=    2.231 eV -> LF-Root   3:     2.316 eV    S= 0.794 Delta=   -0.085 eV
   AI-Root   4: E(AI)=    2.294 eV -> LF-Root   4:     2.378 eV    S= 0.757 Delta=   -0.084 eV
   AI-Root   5: E(AI)=    2.310 eV -> LF-Root   5:     2.387 eV    S= 0.751 Delta=   -0.077 eV
   AI-Root   6: E(AI)=    2.356 eV -> LF-Root   6:     2.355 eV    S= 0.949 Delta=    0.000 eV
   AI-Root   7: E(AI)=    2.567 eV -> LF-Root   7:     2.567 eV    S= 0.984 Delta=   -0.000 eV
   AI-Root   8: E(AI)=    2.567 eV -> LF-Root   8:     2.567 eV    S= 0.984 Delta=   -0.000 eV
   AI-Root   9: E(AI)=    2.712 eV -> LF-Root   9:     2.813 eV    S= 0.775 Delta=   -0.101 eV
   AI-Root  10: E(AI)=    2.734 eV -> LF-Root  10:     2.791 eV    S= 0.966 Delta=   -0.058 eV
   AI-Root  11: E(AI)=    2.756 eV -> LF-Root  11:     2.829 eV    S= 0.774 Delta=   -0.073 eV
   AI-Root  12: E(AI)=    2.983 eV -> LF-Root  12:     2.978 eV    S= 0.984 Delta=    0.005 eV
   AI-Root  13: E(AI)=    2.999 eV -> LF-Root  13:     2.998 eV    S= 0.967 Delta=    0.001 eV
   AI-Root  14: E(AI)=    3.035 eV -> LF-Root  14:     3.031 eV    S= 0.985 Delta=    0.003 eV
   AI-Root  15: E(AI)=    3.078 eV -> LF-Root  15:     3.063 eV    S= 0.951 Delta=    0.015 eV
   AI-Root  16: E(AI)=    3.131 eV -> LF-Root  16:     3.100 eV    S= 0.986 Delta=    0.030 eV
   AI-Root  17: E(AI)=    3.151 eV -> LF-Root  17:     3.139 eV    S= 0.950 Delta=    0.012 eV
   AI-Root  18: E(AI)=    3.182 eV -> LF-Root  18:     3.218 eV    S= 0.954 Delta=   -0.036 eV
   AI-Root  19: E(AI)=    3.211 eV -> LF-Root  19:     3.254 eV    S= 0.927 Delta=   -0.043 eV
   AI-Root  20: E(AI)=    3.277 eV -> LF-Root  20:     3.275 eV    S= 0.984 Delta=    0.002 eV
   AI-Root  21: E(AI)=    3.289 eV -> LF-Root  21:     3.291 eV    S= 0.941 Delta=   -0.002 eV
   AI-Root  22: E(AI)=    3.332 eV -> LF-Root  22:     3.343 eV    S= 0.974 Delta=   -0.011 eV
   AI-Root  23: E(AI)=    3.484 eV -> LF-Root  23:     3.532 eV    S= 0.988 Delta=   -0.048 eV
   AI-Root  24: E(AI)=    3.503 eV -> LF-Root  24:     3.575 eV    S= 0.992 Delta=   -0.072 eV
   AI-Root  25: E(AI)=    3.529 eV -> LF-Root  25:     3.619 eV    S= 0.941 Delta=   -0.089 eV
   AI-Root  26: E(AI)=    3.530 eV -> LF-Root  26:     3.619 eV    S= 0.943 Delta=   -0.089 eV
   AI-Root  27: E(AI)=    3.582 eV -> LF-Root  27:     3.537 eV    S= 0.991 Delta=    0.045 eV
   AI-Root  28: E(AI)=    5.122 eV -> LF-Root  28:     5.172 eV    S= 0.999 Delta=   -0.050 eV
   AI-Root  29: E(AI)=    5.166 eV -> LF-Root  29:     5.204 eV    S= 0.999 Delta=   -0.038 eV
   AI-Root  30: E(AI)=    5.235 eV -> LF-Root  30:     5.274 eV    S= 0.998 Delta=   -0.039 eV
   AI-Root  31: E(AI)=    5.319 eV -> LF-Root  31:     5.348 eV    S= 0.999 Delta=   -0.030 eV
   AI-Root  32: E(AI)=    5.330 eV -> LF-Root  32:     5.361 eV    S= 0.999 Delta=   -0.031 eV
   AI-Root  33: E(AI)=    5.414 eV -> LF-Root  33:     5.457 eV    S= 0.990 Delta=   -0.043 eV
   AI-Root  34: E(AI)=    5.414 eV -> LF-Root  34:     5.458 eV    S= 0.990 Delta=   -0.044 eV
   AI-Root  35: E(AI)=    7.948 eV -> LF-Root  35:     7.862 eV    S= 0.992 Delta=    0.085 eV
   AI-Root  36: E(AI)=    7.989 eV -> LF-Root  36:     8.024 eV    S= 0.997 Delta=   -0.035 eV
   AI-Root  37: E(AI)=    8.038 eV -> LF-Root  37:     8.132 eV    S= 0.990 Delta=   -0.095 eV
   AI-Root  38: E(AI)=    8.622 eV -> LF-Root  38:     8.601 eV    S= 0.995 Delta=    0.021 eV
   AI-Root  39: E(AI)=    8.628 eV -> LF-Root  39:     8.608 eV    S= 0.994 Delta=    0.020 eV
   RMS error for this block =     0.051 eV =     411.8 cm**-1 

Total RMS error g=     0.055 eV =     447.6 cm**-1
Note: Dropped RMS error for the reference energy.

Confidence intervals (95%) computed from the square root of the
diagonal elements of the covariance matrix:
H(dz2   ,dz2   )=  0.000345024 a.u. =     0.009 eV =      75.7 cm**-1
H(dxz   ,dz2   )=  0.000291894 a.u. =     0.008 eV =      64.1 cm**-1
H(dxz   ,dxz   )=  0.000345024 a.u. =     0.009 eV =      75.7 cm**-1
H(dyz   ,dz2   )=  0.000291894 a.u. =     0.008 eV =      64.1 cm**-1
H(dyz   ,dxz   )=  0.000291894 a.u. =     0.008 eV =      64.1 cm**-1
H(dyz   ,dyz   )=  0.000345024 a.u. =     0.009 eV =      75.7 cm**-1
H(dx2-y2,dz2   )=  0.000291894 a.u. =     0.008 eV =      64.1 cm**-1
H(dx2-y2,dxz   )=  0.000291894 a.u. =     0.008 eV =      64.1 cm**-1
H(dx2-y2,dyz   )=  0.000291894 a.u. =     0.008 eV =      64.1 cm**-1
H(dx2-y2,dx2-y2)=  0.000345024 a.u. =     0.009 eV =      75.7 cm**-1
H(dxy   ,dz2   )=  0.000291894 a.u. =     0.008 eV =      64.1 cm**-1
H(dxy   ,dxz   )=  0.000291894 a.u. =     0.008 eV =      64.1 cm**-1
H(dxy   ,dyz   )=  0.000291894 a.u. =     0.008 eV =      64.1 cm**-1
H(dxy   ,dx2-y2)=  0.000291894 a.u. =     0.008 eV =      64.1 cm**-1
H(dxy   ,dxy   )=  0.000345024 a.u. =     0.009 eV =      75.7 cm**-1
F2dd            =  0.001239043 a.u. =     0.034 eV =     271.9 cm**-1
F4dd            =  0.001797052 a.u. =     0.049 eV =     394.4 cm**-1
Pearson's correlation coefficient =    1.000 (should be close to 1)

----------------------------------------------
SPIN ORBIT COUPLING (based on CASSCF orbitals)
----------------------------------------------

AI-SOC-X integrals (cm-1)
                  0          1          2          3          4    
      0       0.000000  -1.409702 904.570052  -0.018439  -5.494320
      1       1.409702  -0.000000  10.617663  -2.922478 513.141902
      2     -904.570052 -10.617663  -0.000000 -491.952869  -0.059567
      3       0.018439   2.922478 491.952869  -0.000000  -0.130058
      4       5.494320 -513.141902   0.059567   0.130058  -0.000000
AI-SOC-Y integrals (cm-1)
                  0          1          2          3          4    
      0      -0.000000 -853.061043   2.022493   5.414590  -0.368963
      1     853.061043   0.000000   0.136181 -492.824664  -0.615053
      2      -2.022493  -0.136181  -0.000000   2.521916 -514.486178
      3      -5.414590 492.824664  -2.521916  -0.000000   0.355523
      4       0.368963   0.615053 514.486178  -0.355523   0.000000
AI-SOC-Z integrals (cm-1)
                  0          1          2          3          4    
      0       0.000000   0.287330   5.565036   4.362768 -50.695693
      1      -0.287330   0.000000 -514.716815  -0.114887 -18.757892
      2      -5.565036 514.716815  -0.000000   1.749719   0.703288
      3      -4.362768   0.114887  -1.749719   0.000000 -985.035763
      4      50.695693  18.757892  -0.703288 985.035763  -0.000000

Fit to the SOC matrix elements
a = 15.000000
b =     0.935 eV =    7541.5 cm**-1
SOC constant zeta =     0.062 eV =     502.8 cm**-1


LF-SOC-X integrals (cm-1)
                  0          1          2          3          4    
      0       0.000000  -0.000000 870.817447  -0.000000  -0.000000
      1       0.000000   0.000000  -0.000000  -0.000000 502.766687
      2     -870.817447   0.000000   0.000000 -502.766687  -0.000000
      3       0.000000   0.000000 502.766687   0.000000  -0.000000
      4       0.000000 -502.766687   0.000000   0.000000   0.000000
LF-SOC-Y integrals (cm-1)
                  0          1          2          3          4    
      0       0.000000 -870.817447  -0.000000  -0.000000  -0.000000
      1     870.817447   0.000000  -0.000000 -502.766687  -0.000000
      2       0.000000   0.000000   0.000000  -0.000000 -502.766687
      3       0.000000 502.766687   0.000000   0.000000  -0.000000
      4       0.000000   0.000000 502.766687   0.000000   0.000000
LF-SOC-Z integrals (cm-1)
                  0          1          2          3          4    
      0       0.000000  -0.000000  -0.000000  -0.000000  -0.000000
      1       0.000000   0.000000 -502.766687  -0.000000  -0.000000
      2       0.000000 502.766687   0.000000  -0.000000  -0.000000
      3       0.000000   0.000000   0.000000   0.000000 -1005.533375
      4       0.000000   0.000000   0.000000 1005.533375   0.000000

RMS error of nonzero matrix elements =   14.2 cm**-1


-----SOC-CONSTANTS-----
---All Values in cm-1---
ZETA_D = 502.77 
------------------------




---AILFT COMPLETED SUCCESFULLY!---

--------------
CASSCF TIMINGS
--------------

Total time                       ...      230.6 sec
Sum of individual times          ...      227.1 sec ( 98.5%)

Calculation of AO operators
   F(Core) operator              ...       89.2 sec ( 38.7%)
   G(Act) operator               ...       86.8 sec ( 37.7%)
   J(AO) operators               ...        0.0 sec (  0.0%)
Calculation of MO transformed quantities
   J(MO) operators               ...       13.7 sec (  5.9%)
   (pq|rs) integrals             ...        0.0 sec (  0.0%)
   AO->MO one electron integrals ...        0.4 sec (  0.2%)
Configuration interaction steps
   CI-setup phase                ...        0.0 sec (  0.0%)
   CI-solution phase             ...        1.1 sec (  0.5%)
   Generation of densities       ...        0.1 sec (  0.0%)
Orbital improvement steps
   Orbital gradient              ...        0.2 sec (  0.1%)
   O(1) converger                ...        4.8 sec (  2.1%)
Properties                       ...       20.0 sec (  8.7%)
   SOC integral calculation      ...       10.7 sec (  4.6%)
   SSC RMEs (incl. integrals)    ...        0.0 sec (  0.0%)
   SOC RMEs                      ...        0.1 sec (  0.0%)

Maximum memory used throughout the entire CASSCF-calculation: 349.2 MB

-------------------------   --------------------
FINAL SINGLE POINT ENERGY     -2467.416350598875
-------------------------   --------------------


                            ***************************************
                            *     ORCA property calculations      *
                            ***************************************

                                    ---------------------
                                    Active property flags
                                    ---------------------
   (+) Dipole Moment


------------------------------------------------------------------------------
                       ORCA ELECTRIC PROPERTIES CALCULATION
------------------------------------------------------------------------------

Dipole Moment Calculation                       ... on
Quadrupole Moment Calculation                   ... off
Polarizability Calculation                      ... off
GBWName                                         ... rho.gbw
Electron density                                ... rho.scfp
The origin for moment calculation is the CENTER OF MASS  = ( 0.000000,  0.009267  0.002662)

-------------
DIPOLE MOMENT
-------------
                                X             Y             Z
Electronic contribution:      0.00012      -0.00280      -0.00080
Nuclear contribution   :     -0.00001       0.00159       0.00047
                        -----------------------------------------
Total Dipole Moment    :      0.00011      -0.00121      -0.00033
                        -----------------------------------------
Magnitude (a.u.)       :      0.00126
Magnitude (Debye)      :      0.00320



--------------------
Rotational spectrum 
--------------------
 
Rotational constants in cm-1:     0.859667     0.009475     0.009371 
Rotational constants in MHz : 25772.161467   284.040691   280.944404 

 Dipole components along the rotational axes: 
x,y,z [a.u.] :     0.000113     0.000001    -0.001256 
x,y,z [Debye]:     0.000288     0.000002    -0.003192 

 

Timings for individual modules:

Sum of individual times         ...      254.856 sec (=   4.248 min)
GTO integral calculation        ...        4.997 sec (=   0.083 min)   2.0 %
Relativistic integrals          ...        4.271 sec (=   0.071 min)   1.7 %
SCF iterations                  ...        4.492 sec (=   0.075 min)   1.8 %
CASSCF iterations               ...      241.095 sec (=   4.018 min)  94.6 %
                             ****ORCA TERMINATED NORMALLY****
TOTAL RUN TIME: 0 days 0 hours 4 minutes 21 seconds 144 msec
