
                                 *****************
                                 * O   R   C   A *
                                 *****************

                                            #,                                       
                                            ###                                      
                                            ####                                     
                                            #####                                    
                                            ######                                   
                                           ########,                                 
                                     ,,################,,,,,                         
                               ,,#################################,,                 
                          ,,##########################################,,             
                       ,#########################################, ''#####,          
                    ,#############################################,,   '####,        
                  ,##################################################,,,,####,       
                ,###########''''           ''''###############################       
              ,#####''   ,,,,##########,,,,          '''####'''          '####       
            ,##' ,,,,###########################,,,                        '##       
           ' ,,###''''                  '''############,,,                           
         ,,##''                                '''############,,,,        ,,,,,,###''
      ,#''                                            '''#######################'''  
     '                                                          ''''####''''         
             ,#######,   #######,   ,#######,      ##                                
            ,#'     '#,  ##    ##  ,#'     '#,    #''#        ######   ,####,        
            ##       ##  ##   ,#'  ##            #'  '#       #        #'  '#        
            ##       ##  #######   ##           ,######,      #####,   #    #        
            '#,     ,#'  ##    ##  '#,     ,#' ,#      #,         ##   #,  ,#        
             '#######'   ##     ##  '#######'  #'      '#     #####' # '####'        



                  #######################################################
                  #                        -***-                        #
                  #          Department of theory and spectroscopy      #
                  #    Directorship and core code : Frank Neese         #
                  #        Max Planck Institute fuer Kohlenforschung    #
                  #                Kaiser Wilhelm Platz 1               #
                  #                 D-45470 Muelheim/Ruhr               #
                  #                      Germany                        #
                  #                                                     #
                  #                  All rights reserved                #
                  #                        -***-                        #
                  #######################################################


                         Program Version 5.0.4 -  RELEASE  -


 With contributions from (in alphabetic order):
   Daniel Aravena         : Magnetic Suceptibility
   Michael Atanasov       : Ab Initio Ligand Field Theory (pilot matlab implementation)
   Alexander A. Auer      : GIAO ZORA, VPT2 properties, NMR spectrum
   Ute Becker             : Parallelization
   Giovanni Bistoni       : ED, misc. LED, open-shell LED, HFLD
   Martin Brehm           : Molecular dynamics
   Dmytro Bykov           : SCF Hessian
   Vijay G. Chilkuri      : MRCI spin determinant printing, contributions to CSF-ICE
   Dipayan Datta          : RHF DLPNO-CCSD density
   Achintya Kumar Dutta   : EOM-CC, STEOM-CC
   Dmitry Ganyushin       : Spin-Orbit,Spin-Spin,Magnetic field MRCI
   Miquel Garcia          : C-PCM and meta-GGA Hessian, CC/C-PCM, Gaussian charge scheme
   Yang Guo               : DLPNO-NEVPT2, F12-NEVPT2, CIM, IAO-localization
   Andreas Hansen         : Spin unrestricted coupled pair/coupled cluster methods
   Benjamin Helmich-Paris : MC-RPA, TRAH-SCF, COSX integrals
   Lee Huntington         : MR-EOM, pCC
   Robert Izsak           : Overlap fitted RIJCOSX, COSX-SCS-MP3, EOM
   Marcus Kettner         : VPT2
   Christian Kollmar      : KDIIS, OOCD, Brueckner-CCSD(T), CCSD density, CASPT2, CASPT2-K
   Simone Kossmann        : Meta GGA functionals, TD-DFT gradient, OOMP2, MP2 Hessian
   Martin Krupicka        : Initial AUTO-CI
   Lucas Lang             : DCDCAS
   Marvin Lechner         : AUTO-CI (C++ implementation), FIC-MRCC
   Dagmar Lenk            : GEPOL surface, SMD
   Dimitrios Liakos       : Extrapolation schemes; Compound Job, initial MDCI parallelization
   Dimitrios Manganas     : Further ROCIS development; embedding schemes
   Dimitrios Pantazis     : SARC Basis sets
   Anastasios Papadopoulos: AUTO-CI, single reference methods and gradients
   Taras Petrenko         : DFT Hessian,TD-DFT gradient, ASA, ECA, R-Raman, ABS, FL, XAS/XES, NRVS
   Peter Pinski           : DLPNO-MP2, DLPNO-MP2 Gradient
   Christoph Reimann      : Effective Core Potentials
   Marius Retegan         : Local ZFS, SOC
   Christoph Riplinger    : Optimizer, TS searches, QM/MM, DLPNO-CCSD(T), (RO)-DLPNO pert. Triples
   Tobias Risthaus        : Range-separated hybrids, TD-DFT gradient, RPA, STAB
   Michael Roemelt        : Original ROCIS implementation
   Masaaki Saitow         : Open-shell DLPNO-CCSD energy and density
   Barbara Sandhoefer     : DKH picture change effects
   Avijit Sen             : IP-ROCIS
   Kantharuban Sivalingam : CASSCF convergence, NEVPT2, FIC-MRCI
   Bernardo de Souza      : ESD, SOC TD-DFT
   Georgi Stoychev        : AutoAux, RI-MP2 NMR, DLPNO-MP2 response
   Willem Van den Heuvel  : Paramagnetic NMR
   Boris Wezisla          : Elementary symmetry handling
   Frank Wennmohs         : Technical directorship


 We gratefully acknowledge several colleagues who have allowed us to
 interface, adapt or use parts of their codes:
   Stefan Grimme, W. Hujo, H. Kruse, P. Pracht,  : VdW corrections, initial TS optimization,
                  C. Bannwarth, S. Ehlert          DFT functionals, gCP, sTDA/sTD-DF
   Ed Valeev, F. Pavosevic, A. Kumar             : LibInt (2-el integral package), F12 methods
   Garnet Chan, S. Sharma, J. Yang, R. Olivares  : DMRG
   Ulf Ekstrom                                   : XCFun DFT Library
   Mihaly Kallay                                 : mrcc  (arbitrary order and MRCC methods)
   Jiri Pittner, Ondrej Demel                    : Mk-CCSD
   Frank Weinhold                                : gennbo (NPA and NBO analysis)
   Christopher J. Cramer and Donald G. Truhlar   : smd solvation model
   Lars Goerigk                                  : TD-DFT with DH, B97 family of functionals
   V. Asgeirsson, H. Jonsson                     : NEB implementation
   FAccTs GmbH                                   : IRC, NEB, NEB-TS, DLPNO-Multilevel, CI-OPT
                                                   MM, QMMM, 2- and 3-layer-ONIOM, Crystal-QMMM,
                                                   LR-CPCM, SF, NACMEs, symmetry and pop. for TD-DFT,
                                                   nearIR, NL-DFT gradient (VV10), updates on ESD,
                                                   ML-optimized integration grids
   S Lehtola, MJT Oliveira, MAL Marques          : LibXC Library
   Liviu Ungur et al                             : ANISO software


 Your calculation uses the libint2 library for the computation of 2-el integrals
 For citations please refer to: http://libint.valeyev.net

 Your ORCA version has been built with support for libXC version: 5.1.0
 For citations please refer to: https://tddft.org/programs/libxc/

 This ORCA versions uses:
   CBLAS   interface :  Fast vector & matrix operations
   LAPACKE interface :  Fast linear algebra routines
   SCALAPACK package :  Parallel linear algebra routines
   Shared memory     :  Shared parallel matrices
   BLAS/LAPACK       :  OpenBLAS 0.3.15  USE64BITINT DYNAMIC_ARCH NO_AFFINITY Zen SINGLE_THREADED
        Core in use  :  Zen
   Copyright (c) 2011-2014, The OpenBLAS Project




***************************************
The coordinates will be read from file: geo.xyz
***************************************


================================================================================

----- Orbital basis set information -----
Your calculation utilizes the basis: DKH-def2-TZVPP
   Exponents from def2-TZVPP [F. Weigend and R. Ahlrichs, Phys. Chem. Chem. Phys. 7, 3297 (2005)],
   recontracted for DKH2 by D. A. Pantazis.

----- AuxJ basis set information -----
Your calculation utilizes the AutoAux generation procedure.
  G. L. Stoychev, A. A. Auer, F. Neese, J. Chem. Theory Comput. 13, 554 (2017)

----- AuxC basis set information -----
Your calculation utilizes the AutoAux generation procedure.
  G. L. Stoychev, A. A. Auer, F. Neese, J. Chem. Theory Comput. 13, 554 (2017)

----- AuxJK basis set information -----
Your calculation utilizes the AutoAux generation procedure.
  G. L. Stoychev, A. A. Auer, F. Neese, J. Chem. Theory Comput. 13, 554 (2017)

================================================================================
                                        WARNINGS
                       Please study these warnings very carefully!
================================================================================


INFO   : the flag for use of the SHARK integral package has been found!

================================================================================
                                       INPUT FILE
================================================================================
NAME = rho.inp
|  1> !CASSCF  DKH DKH-def2-TZVPP  RIJCOSX NoSFitting VeryTightSCF autoaux moread SlowConv
|  2> %moinp "orb.gbw"
|  3> %pal
|  4> nprocs 10
|  5> end
|  6> %maxcore 4000
|  7> # swap
|  8> #%scf
|  9> # Rotate
| 10> #  { 58, 47 }
| 11> # end
| 12> #end
| 13> #
| 14> %rel
| 15>  picturechange 2
| 16> end
| 17> %casscf
| 18>  nel  7
| 19>  norb 5
| 20>  mult 4,2
| 21>  nroots 10,40
| 22>  maxiter 100
| 23>  ActOrbs dOrbs
| 24>  rel
| 25>   printlevel 3
| 26>   dosoc true
| 27>   gtensor true
| 28>   quad true
| 29>  end
| 30> end
| 31> * xyzfile 0 4 geo.xyz *
| 32> 
| 33>                          ****END OF INPUT****
================================================================================

                       ****************************
                       * Single Point Calculation *
                       ****************************

---------------------------------
CARTESIAN COORDINATES (ANGSTROEM)
---------------------------------
  Co     0.002818   -0.125473    0.581095
  C      1.831962    0.284125    0.205426
  Cl     2.670111   -1.147082   -0.390510
  C      2.490889    1.454198    0.321109
  Cl     4.170123    1.717532   -0.004182
  H      1.975319    2.352744    0.657625
  C     -1.827635   -0.347684    0.074444
  Cl    -2.655696    1.208394    0.103095
  C     -2.495114   -1.461567   -0.286103
  Cl    -4.176124   -1.561189   -0.685554
  H     -1.986651   -2.423395   -0.338725

----------------------------
CARTESIAN COORDINATES (A.U.)
----------------------------
  NO LB      ZA    FRAG     MASS         X           Y           Z
   0 Co   27.0000    0    58.930    0.005324   -0.237110    1.098110
   1 C     6.0000    0    12.011    3.461906    0.536918    0.388199
   2 Cl   17.0000    0    35.453    5.045779   -2.167670   -0.737957
   3 C     6.0000    0    12.011    4.707098    2.748036    0.606808
   4 Cl   17.0000    0    35.453    7.880390    3.245664   -0.007903
   5 H     1.0000    0     1.008    3.732812    4.446043    1.242731
   6 C     6.0000    0    12.011   -3.453729   -0.657027    0.140679
   7 Cl   17.0000    0    35.453   -5.018539    2.283534    0.194822
   8 C     6.0000    0    12.011   -4.715082   -2.761962   -0.540657
   9 Cl   17.0000    0    35.453   -7.891731   -2.950219   -1.295510
  10 H     1.0000    0     1.008   -3.754227   -4.579554   -0.640098

--------------------------------
INTERNAL COORDINATES (ANGSTROEM)
--------------------------------
 Co     0   0   0     0.000000000000     0.00000000     0.00000000
 C      1   0   0     1.911717781094     0.00000000     0.00000000
 Cl     2   1   0     1.762380662459   110.33382433     0.00000000
 C      2   1   3     1.347827840677   129.56090912   179.13869659
 Cl     4   2   1     1.730602425121   126.18059648   178.17478011
 H      4   2   1     1.089238730455   120.74720716   358.94577335
 C      1   2   3     1.912231246076   152.71279681   275.00998511
 Cl     7   1   2     1.762919201563   110.04427238   275.47705226
 C      7   1   2     1.347686908203   129.86824186    94.67977637
 Cl     9   7   1     1.730688327141   126.18425068   178.11551542
 H      9   7   1     1.089227306173   120.76830622   358.87959177

---------------------------
INTERNAL COORDINATES (A.U.)
---------------------------
 Co     0   0   0     0.000000000000     0.00000000     0.00000000
 C      1   0   0     3.612623051614     0.00000000     0.00000000
 Cl     2   1   0     3.330416795766   110.33382433     0.00000000
 C      2   1   3     2.547025494553   129.56090912   179.13869659
 Cl     4   2   1     3.270364630179   126.18059648   178.17478011
 H      4   2   1     2.058362895020   120.74720716   358.94577335
 C      1   2   3     3.613593359811   152.71279681   275.00998511
 Cl     7   1   2     3.331434487186   110.04427238   275.47705226
 C      7   1   2     2.546759170775   129.86824186    94.67977637
 Cl     9   7   1     3.270526961471   126.18425068   178.11551542
 H      9   7   1     2.058341306255   120.76830622   358.87959177

---------------------
BASIS SET INFORMATION
---------------------
There are 4 groups of distinct atoms

 Group   1 Type Co  : 17s12p7d2f1g contracted to 10s7p4d2f1g pattern {8111111111/6111111/4111/11/1}
 Group   2 Type C   : 11s6p2d1f contracted to 6s3p2d1f pattern {611111/411/11/1}
 Group   3 Type Cl  : 14s9p3d1f contracted to 8s4p3d1f pattern {71111111/6111/111/1}
 Group   4 Type H   : 5s2p1d contracted to 3s2p1d pattern {311/11/1}

Atom   0Co   basis set group =>   1
Atom   1C    basis set group =>   2
Atom   2Cl   basis set group =>   3
Atom   3C    basis set group =>   2
Atom   4Cl   basis set group =>   3
Atom   5H    basis set group =>   4
Atom   6C    basis set group =>   2
Atom   7Cl   basis set group =>   3
Atom   8C    basis set group =>   2
Atom   9Cl   basis set group =>   3
Atom  10H    basis set group =>   4
---------------------------------
AUXILIARY/J BASIS SET INFORMATION
---------------------------------
There are 4 groups of distinct atoms

 Group   1 Type Co  : 22s18p17d17f16g6h3i contracted to 22s18p17d17f16g6h3i pattern {1111111111111111111111/111111111111111111/11111111111111111/11111111111111111/1111111111111111/111111/111}
 Group   2 Type C   : 16s13p12d7f3g contracted to 16s13p12d7f3g pattern {1111111111111111/1111111111111/111111111111/1111111/111}
 Group   3 Type Cl  : 18s15p14d9f5g contracted to 18s15p14d9f5g pattern {111111111111111111/111111111111111/11111111111111/111111111/11111}
 Group   4 Type H   : 11s4p3d2f contracted to 11s4p3d2f pattern {11111111111/1111/111/11}

Atom   0Co   basis set group =>   1
Atom   1C    basis set group =>   2
Atom   2Cl   basis set group =>   3
Atom   3C    basis set group =>   2
Atom   4Cl   basis set group =>   3
Atom   5H    basis set group =>   4
Atom   6C    basis set group =>   2
Atom   7Cl   basis set group =>   3
Atom   8C    basis set group =>   2
Atom   9Cl   basis set group =>   3
Atom  10H    basis set group =>   4
---------------------------------
AUXILIARY/C BASIS SET INFORMATION
---------------------------------
There are 4 groups of distinct atoms

 Group   1 Type Co  : 22s18p17d17f16g6h3i contracted to 22s18p17d17f16g6h3i pattern {1111111111111111111111/111111111111111111/11111111111111111/11111111111111111/1111111111111111/111111/111}
 Group   2 Type C   : 16s13p12d7f3g contracted to 16s13p12d7f3g pattern {1111111111111111/1111111111111/111111111111/1111111/111}
 Group   3 Type Cl  : 18s15p14d9f5g contracted to 18s15p14d9f5g pattern {111111111111111111/111111111111111/11111111111111/111111111/11111}
 Group   4 Type H   : 11s4p3d2f contracted to 11s4p3d2f pattern {11111111111/1111/111/11}

Atom   0Co   basis set group =>   1
Atom   1C    basis set group =>   2
Atom   2Cl   basis set group =>   3
Atom   3C    basis set group =>   2
Atom   4Cl   basis set group =>   3
Atom   5H    basis set group =>   4
Atom   6C    basis set group =>   2
Atom   7Cl   basis set group =>   3
Atom   8C    basis set group =>   2
Atom   9Cl   basis set group =>   3
Atom  10H    basis set group =>   4
----------------------------------
AUXILIARY/JK BASIS SET INFORMATION
----------------------------------
There are 4 groups of distinct atoms

 Group   1 Type Co  : 22s18p17d17f16g6h3i contracted to 22s18p17d17f16g6h3i pattern {1111111111111111111111/111111111111111111/11111111111111111/11111111111111111/1111111111111111/111111/111}
 Group   2 Type C   : 16s13p12d7f3g contracted to 16s13p12d7f3g pattern {1111111111111111/1111111111111/111111111111/1111111/111}
 Group   3 Type Cl  : 18s15p14d9f5g contracted to 18s15p14d9f5g pattern {111111111111111111/111111111111111/11111111111111/111111111/11111}
 Group   4 Type H   : 11s4p3d2f contracted to 11s4p3d2f pattern {11111111111/1111/111/11}

Atom   0Co   basis set group =>   1
Atom   1C    basis set group =>   2
Atom   2Cl   basis set group =>   3
Atom   3C    basis set group =>   2
Atom   4Cl   basis set group =>   3
Atom   5H    basis set group =>   4
Atom   6C    basis set group =>   2
Atom   7Cl   basis set group =>   3
Atom   8C    basis set group =>   2
Atom   9Cl   basis set group =>   3
Atom  10H    basis set group =>   4


           ************************************************************
           *        Program running with 10 parallel MPI-processes    *
           *              working on a common directory               *
           ************************************************************
------------------------------------------------------------------------------
                           ORCA GTO INTEGRAL CALCULATION
                           -- RI-GTO INTEGRALS CHOSEN --
------------------------------------------------------------------------------
------------------------------------------------------------------------------
                   ___                                                        
                  /   \      - P O W E R E D   B Y -                         
                 /     \                                                     
                 |  |  |   _    _      __       _____    __    __             
                 |  |  |  | |  | |    /  \     |  _  \  |  |  /  |          
                  \  \/   | |  | |   /    \    | | | |  |  | /  /          
                 / \  \   | |__| |  /  /\  \   | |_| |  |  |/  /          
                |  |  |   |  __  | /  /__\  \  |    /   |      \           
                |  |  |   | |  | | |   __   |  |    \   |  |\   \          
                \     /   | |  | | |  |  |  |  | |\  \  |  | \   \       
                 \___/    |_|  |_| |__|  |__|  |_| \__\ |__|  \__/        
                                                                              
                      - O R C A' S   B I G   F R I E N D -                    
                                      &                                       
                       - I N T E G R A L  F E E D E R -                       
                                                                              
 v1 FN, 2020, v2 2021                                                         
------------------------------------------------------------------------------


Reading SHARK input file rho.SHARKINP.tmp ... ok
----------------------
SHARK INTEGRAL PACKAGE
----------------------

Number of atoms                             ...     11
Number of basis functions                   ...    398
Number of shells                            ...    148
Maximum angular momentum                    ...      4
Integral batch strategy                     ... SHARK/LIBINT Hybrid
RI-J (if used) integral strategy            ... SPLIT-RIJ (Revised 2003 algorithm where possible)
Printlevel                                  ...      1
Contraction scheme used                     ... SEGMENTED contraction
Coulomb Range Separation                    ... NOT USED
Exchange Range Separation                   ... NOT USED
Finite Nucleus Model                        ... NOT USED
Auxiliary Coulomb fitting basis             ... AVAILABLE
   # of basis functions in Aux-J            ...   2361
   # of shells in Aux-J                     ...    587
   Maximum angular momentum in Aux-J        ...      6
Auxiliary J/K fitting basis                 ... AVAILABLE
   # of basis functions in Aux-JK           ...   2361
   # of shells in Aux-JK                    ...    587
   Maximum angular momentum in Aux-JK       ...      6
Auxiliary Correlation fitting basis         ... AVAILABLE
   # of basis functions in Aux-C            ...   2361
   # of shells in Aux-C                     ...    587
   Maximum angular momentum in Aux-C        ...      6
Auxiliary 'external' fitting basis          ... NOT available
Integral threshold                          ...     1.000000e-12
Primitive cut-off                           ...     1.000000e-14
Primitive pair pre-selection threshold      ...     1.000000e-14

Calculating pre-screening integrals         ... done (  0.1 sec) Dimension = 148
Organizing shell pair data                  ... done (  0.1 sec)
Shell pair information
Total number of shell pairs                 ...     11026
Shell pairs after pre-screening             ...      7892
Total number of primitive shell pairs       ...     29929
Primitive shell pairs kept                  ...     15812
          la=0 lb=0:   1583 shell pairs
          la=1 lb=0:   2074 shell pairs
          la=1 lb=1:    665 shell pairs
          la=2 lb=0:   1303 shell pairs
          la=2 lb=1:    822 shell pairs
          la=2 lb=2:    266 shell pairs
          la=3 lb=0:    500 shell pairs
          la=3 lb=1:    324 shell pairs
          la=3 lb=2:    203 shell pairs
          la=3 lb=3:     44 shell pairs
          la=4 lb=0:     44 shell pairs
          la=4 lb=1:     33 shell pairs
          la=4 lb=2:     20 shell pairs
          la=4 lb=3:     10 shell pairs
          la=4 lb=4:      1 shell pairs

Calculating one electron integrals          ... done (  0.0 sec)
Calculating RI/J V-Matrix + Cholesky decomp.... done (  0.4 sec)
Calculating RI/JK V-Matrix + Cholesky decomp... done (  0.3 sec)
Calculating RI/C V-Matrix + Cholesky decomp.... done (  0.3 sec)
Calculating Nuclear repulsion               ... done (  0.0 sec) ENN=    958.700757694275 Eh

SHARK setup successfully completed in   2.0 seconds

Maximum memory used throughout the entire GTOINT-calculation: 42.2 MB


           ************************************************************
           *        Program running with 10 parallel MPI-processes    *
           *              working on a common directory               *
           ************************************************************
------------------------------------------------------------------------------
                          ORCA RELATIVISTIC HAMILTONIAN
------------------------------------------------------------------------------

Relativistic Method            ... DKH
Order of DKH treatment         ...   2
Treatment of potential         ... V(e,N)
Eps parameter for DKH          ...   0.00000000010000
Nucleus model                  ... Point Nucleus
Speed of light used            ... 137.03598950000000


            ************************************************
            *        DOUGLAS-KROLL-HESS HAMILTONIAN        *
            *   Programmed by FN according to literature   *
            *        procedures. Special thanks to         *
            *       B.A. Hess, M. Reiher and A. Wolf       *
            *     University Erlangen-Nuernberg/Bonn       *
            ************************************************

Uncontracting the basis (first version)        ... done
Number of contracted basis functions           ...  398
Number of uncontracted basis functions         ...  579
Initializing the DKH file                      ... done
Calculating the relativistic integrals         ... done
Storing DKH matrices                           ... done
Code used for DKH trafo                        ... ORCA
Computing the DKH transformation               ... done
Storing the transformation variables           ... done
Transforming V and pVp to p**2 space           ... done
First transformation of V and pVp              ... done
Second transformation of Veff                  ... done
Adding kinetic energy                          ... done
Back transformation of Veff to r-space         ... done
Recovering DKH matrices                        ... done
Recontracting the H-matrix (first version)     ... done
Computing the DKH correction to the H-matrix   ... done
Reading the original H-matrix                  ... done
Adding DKH correction to the H-matrix          ... done
Storing the new modified H-matrix              ... done

Maximum memory used throughout the entire REL-calculation: 74.7 MB


           ************************************************************
           *        Program running with 10 parallel MPI-processes    *
           *              working on a common directory               *
           ************************************************************
-------------------------------------------------------------------------------
                                 ORCA SCF
-------------------------------------------------------------------------------

------------
SCF SETTINGS
------------
Hamiltonian:
 Ab initio Hamiltonian  Method          .... Hartree-Fock(GTOs)
 RI-approximation to the Coulomb term is turned on
   Number of AuxJ basis functions       .... 2361
   RIJ-COSX (HFX calculated with COS-X)).... on

Relativistic Settings:
 Scalar relativistic method             .... Douglas-Kroll-Hess
 Order of DKH procedure    Order        ....    2
 Mode of DKH-treatment                  .... V=V(e,N)
 Speed of light used       Velit        ....       137.035989
 Cutoff-constant           Eps          ....            1e-10 


General Settings:
 Integral files         IntName         .... rho
 Hartree-Fock type      HFTyp           .... CASSCF
 Total Charge           Charge          ....    0
 Multiplicity           Mult            ....    4
 Number of Electrons    NEL             ....  121
 Basis Dimension        Dim             ....  398
 Nuclear Repulsion      ENuc            ....    958.7007576943 Eh


Diagonalization of the overlap matrix:
Smallest eigenvalue                        ... 1.530e-04
Time for diagonalization                   ...    0.020 sec
Threshold for overlap eigenvalues          ... 1.000e-08
Number of eigenvalues below threshold      ... 0
Time for construction of square roots      ...    0.016 sec
Total time needed                          ...    0.037 sec

---------------------
INITIAL GUESS: MOREAD
---------------------
Guess MOs are being read from file: orb.gbw
Input Geometry matches current geometry (good)
Input basis set matches current basis set (good)
MOs were renormalized
Gram-Schmidt orthogonalization of all MOs with pivot on actives
                      ------------------
                      INITIAL GUESS DONE (   0.6 sec)
                      ------------------
--------------------
COSX GRID GENERATION
--------------------

GRIDX 1
-------
General Integration Accuracy     IntAcc      ... 3.816
Radial Grid Type                 RadialGrid  ... OptM3 with GC (2021)
Angular Grid (max. ang.)         AngularGrid ... 1 (Lebedev-50)
Angular grid pruning method      GridPruning ... 4 (adaptive)
Weight generation scheme         WeightScheme... Becke
Basis function cutoff            BFCut       ... 1.0000e-12
Integration weight cutoff        WCut        ... 1.0000e-14
Angular grids for H and He will be reduced by one unit
Partially contracted basis set               ... on
Rotationally invariant grid construction     ... off

Total number of grid points                  ...     8507
Total number of batches                      ...      137
Average number of points per batch           ...       62
Average number of grid points per atom       ...      773

GRIDX 2
-------
General Integration Accuracy     IntAcc      ... 4.020
Radial Grid Type                 RadialGrid  ... OptM3 with GC (2021)
Angular Grid (max. ang.)         AngularGrid ... 2 (Lebedev-110)
Angular grid pruning method      GridPruning ... 4 (adaptive)
Weight generation scheme         WeightScheme... Becke
Basis function cutoff            BFCut       ... 1.0000e-12
Integration weight cutoff        WCut        ... 1.0000e-14
Angular grids for H and He will be reduced by one unit
Partially contracted basis set               ... on
Rotationally invariant grid construction     ... off

Total number of grid points                  ...    19397
Total number of batches                      ...      310
Average number of points per batch           ...       62
Average number of grid points per atom       ...     1763

GRIDX 3
-------
General Integration Accuracy     IntAcc      ... 4.338
Radial Grid Type                 RadialGrid  ... OptM3 with GC (2021)
Angular Grid (max. ang.)         AngularGrid ... 3 (Lebedev-194)
Angular grid pruning method      GridPruning ... 4 (adaptive)
Weight generation scheme         WeightScheme... Becke
Basis function cutoff            BFCut       ... 1.0000e-12
Integration weight cutoff        WCut        ... 1.0000e-14
Angular grids for H and He will be reduced by one unit
Partially contracted basis set               ... on
Rotationally invariant grid construction     ... off

Total number of grid points                  ...    45449
Total number of batches                      ...      714
Average number of points per batch           ...       63
Average number of grid points per atom       ...     4132

Time for X-Grid setup             =    0.343 sec



 ... the calculation is a CASSCF calculation -I'm leaving here GOOD LUCK!!!



           ************************************************************
           *        Program running with 10 parallel MPI-processes    *
           *              working on a common directory               *
           ************************************************************
-------------------------------------------------------------------------------
                              ORCA-CASSCF
-------------------------------------------------------------------------------

Setting up the integral package       ... done
Setting up the integral package (RI)  ... done
Building the CAS space                ... done (10 configurations for Mult=4)
Building the CAS space                ... done (30 configurations for Mult=2)

SYSTEM-SPECIFIC SETTINGS:
Number of active electrons          ...    7
Number of active orbitals           ...    5
Total number of electrons           ...  121
Total number of orbitals            ...  398
Total number aux. functions         ... 2361

Determined orbital ranges:
   Internal       0 -   56 (  57 orbitals)
   Active        57 -   61 (   5 orbitals)
   External      62 -  397 ( 336 orbitals)
Number of rotation parameters      ...  21117

CI-STEP:
CI strategy                         ... General CI
Number of multiplicity blocks       ...    2
BLOCK  1 WEIGHT=   0.5000
  Multiplicity                      ...    4
  #(Configurations)                 ...   10
  #(CSFs)                           ...   10
  #(Roots)                          ...   10
    ROOT=0 WEIGHT=    0.050000
    ROOT=1 WEIGHT=    0.050000
    ROOT=2 WEIGHT=    0.050000
    ROOT=3 WEIGHT=    0.050000
    ROOT=4 WEIGHT=    0.050000
    ROOT=5 WEIGHT=    0.050000
    ROOT=6 WEIGHT=    0.050000
    ROOT=7 WEIGHT=    0.050000
    ROOT=8 WEIGHT=    0.050000
    ROOT=9 WEIGHT=    0.050000

BLOCK  2 WEIGHT=   0.5000
  Multiplicity                      ...    2
  #(Configurations)                 ...   30
  #(CSFs)                           ...   40
  #(Roots)                          ...   40
    ROOT=0 WEIGHT=    0.012500
    ROOT=1 WEIGHT=    0.012500
    ROOT=2 WEIGHT=    0.012500
    ROOT=3 WEIGHT=    0.012500
    ROOT=4 WEIGHT=    0.012500
    ROOT=5 WEIGHT=    0.012500
    ROOT=6 WEIGHT=    0.012500
    ROOT=7 WEIGHT=    0.012500
    ROOT=8 WEIGHT=    0.012500
    ROOT=9 WEIGHT=    0.012500
    ROOT=10 WEIGHT=    0.012500
    ROOT=11 WEIGHT=    0.012500
    ROOT=12 WEIGHT=    0.012500
    ROOT=13 WEIGHT=    0.012500
    ROOT=14 WEIGHT=    0.012500
    ROOT=15 WEIGHT=    0.012500
    ROOT=16 WEIGHT=    0.012500
    ROOT=17 WEIGHT=    0.012500
    ROOT=18 WEIGHT=    0.012500
    ROOT=19 WEIGHT=    0.012500
    ROOT=20 WEIGHT=    0.012500
    ROOT=21 WEIGHT=    0.012500
    ROOT=22 WEIGHT=    0.012500
    ROOT=23 WEIGHT=    0.012500
    ROOT=24 WEIGHT=    0.012500
    ROOT=25 WEIGHT=    0.012500
    ROOT=26 WEIGHT=    0.012500
    ROOT=27 WEIGHT=    0.012500
    ROOT=28 WEIGHT=    0.012500
    ROOT=29 WEIGHT=    0.012500
    ROOT=30 WEIGHT=    0.012500
    ROOT=31 WEIGHT=    0.012500
    ROOT=32 WEIGHT=    0.012500
    ROOT=33 WEIGHT=    0.012500
    ROOT=34 WEIGHT=    0.012500
    ROOT=35 WEIGHT=    0.012500
    ROOT=36 WEIGHT=    0.012500
    ROOT=37 WEIGHT=    0.012500
    ROOT=38 WEIGHT=    0.012500
    ROOT=39 WEIGHT=    0.012500

  PrintLevel                        ...    1
  N(GuessMat)                       ...       512
  MaxDim(CI)                        ...        10
  MaxIter(CI)                       ...        64
  Energy Tolerance CI               ...  1.00e-09
  Residual Tolerance CI             ...  1.00e-09
  Shift(CI)                         ...  1.00e-04

INTEGRAL-TRANSFORMATION-STEP:
  Algorithm                         ... RI-MO

ORBITAL-IMPROVEMENT-STEP:
  Algorithm                         ... SuperCI
  Default Parametrization           ... CAYLEY
  Act-Act rotations                 ... depends on algorithm used
  FreezeIE                          ... 95.00% of ||g||
  Until reaching FreezeIE rotations with active orbitals are damped. 

  Approx. Fock at                   ... 0.000000e+00 density convergence
  Level shift                       ... energy gap dependent. Minimum=1.000
  Switch step at gradient           ...  3.00e-02 
  Switch step at iteration          ...        50   
  Switch step to                    ... DIIS    

SCF-SETTINGS:
  Incremental                       ... off
  RIJCOSX approximation             ... on
  UseFinalGrid                      ... on
  RI-JK approximation               ... off
  AO integral handling              ... DIRECT
  Integral Neglect Thresh           ...  1.00e-12
  Primitive cutoff TCut             ...  1.00e-14
  Energy convergence tolerance      ...  1.00e-08
  Orbital gradient convergence      ...  1.00e-05
  Max. number of iterations         ...       100  


PROPERTIES-SETTINGS:
  Spin orbit coupling               ... true
  GTensor                           ... true

FINAL ORBITALS:
  Active   Orbitals                 ... d-orbitals 
  Internal Orbitals                 ... canonical 
  External Orbitals                 ... canonical 

------------------
CAS-SCF ITERATIONS
------------------


MACRO-ITERATION   1: 
   --- Canonicalize Internal Space
   --- Canonicalize External Space
   --- Inactive Energy E0 = -3365.48253000 Eh
CI-ITERATION   0: 
 -3388.169915386   0.000000000000 (    0.00)
 -3388.169808897   0.000000000000
 -3388.160277940   0.000000000000
 -3388.158218962   0.000000000000
 -3388.156616279   0.000000000000
 -3388.156087324   0.000000000000
 -3388.154304469   0.000000000000
 -3388.092246196   0.000000000000
 -3388.077780701   0.000000000000
 -3388.069970323   0.000000000000
   CI-PROBLEM SOLVED
   DENSITIES MADE
CI-ITERATION   0: 
 -3388.089455854   0.000000000000 (    0.00)
 -3388.089174609   0.000000000000
 -3388.088583125   0.000000000000
 -3388.088225353   0.000000000000
 -3388.084603944   0.000000000000
 -3388.082806515   0.000000000000
 -3388.082576790   0.000000000000
 -3388.074470477   0.000000000000
 -3388.074082571   0.000000000000
 -3388.069423940   0.000000000000
 -3388.068507017   0.000000000000
 -3388.066698574   0.000000000000
 -3388.061224196   0.000000000000
 -3388.058952573   0.000000000000
 -3388.056811817   0.000000000000
 -3388.055512494   0.000000000000
 -3388.052779084   0.000000000000
 -3388.052218123   0.000000000000
 -3388.051124022   0.000000000000
 -3388.050718327   0.000000000000
 -3388.047377452   0.000000000000
 -3388.045117662   0.000000000000
 -3388.043474094   0.000000000000
 -3388.039209726   0.000000000000
 -3388.037551144   0.000000000000
 -3388.035969204   0.000000000000
 -3388.035806655   0.000000000000
 -3388.035651762   0.000000000000
 -3387.980685978   0.000000000000
 -3387.980221755   0.000000000000
 -3387.974155328   0.000000000000
 -3387.972905685   0.000000000000
 -3387.971204859   0.000000000000
 -3387.968423238   0.000000000000
 -3387.968409533   0.000000000000
 -3387.878459238   0.000000000000
 -3387.874370997   0.000000000000
 -3387.873506462   0.000000000000
 -3387.850191307   0.000000000000
 -3387.849572978   0.000000000000
   CI-PROBLEM SOLVED
   DENSITIES MADE

                 <<<<<<<<<<<<<<<<<<INITIAL CI STATE CHECK>>>>>>>>>>>>>>>>>>

BLOCK  1 MULT= 4 NROOTS=10 
ROOT   0:  E=   -3388.1699153859 Eh
      0.39879 [     2]: 11221
      0.18707 [     0]: 11122
      0.17370 [     1]: 11212
      0.08207 [     7]: 21121
      0.08029 [     6]: 21112
      0.03553 [     4]: 12121
      0.02103 [     5]: 12211
      0.01486 [     3]: 12112
      0.00444 [     8]: 21211
ROOT   1:  E=   -3388.1698088970 Eh  0.003 eV     23.4 cm**-1
      0.50253 [     7]: 21121
      0.13722 [     6]: 21112
      0.11732 [     1]: 11212
      0.11435 [     0]: 11122
      0.04953 [     8]: 21211
      0.02975 [     2]: 11221
      0.02942 [     9]: 22111
      0.01546 [     4]: 12121
      0.00266 [     5]: 12211
ROOT   2:  E=   -3388.1602779396 Eh  0.262 eV   2115.2 cm**-1
      0.30474 [     0]: 11122
      0.27228 [     1]: 11212
      0.16543 [     7]: 21121
      0.07297 [     2]: 11221
      0.06411 [     9]: 22111
      0.06236 [     8]: 21211
      0.04051 [     6]: 21112
      0.01221 [     5]: 12211
      0.00473 [     3]: 12112
ROOT   3:  E=   -3388.1582189618 Eh  0.318 eV   2567.1 cm**-1
      0.35532 [     6]: 21112
      0.25519 [     8]: 21211
      0.17235 [     4]: 12121
      0.08951 [     0]: 11122
      0.08880 [     2]: 11221
      0.03140 [     7]: 21121
      0.00663 [     5]: 12211
ROOT   4:  E=   -3388.1566162790 Eh  0.362 eV   2918.8 cm**-1
      0.62856 [     9]: 22111
      0.12535 [     3]: 12112
      0.07281 [     8]: 21211
      0.05628 [     7]: 21121
      0.04688 [     1]: 11212
      0.02637 [     6]: 21112
      0.01607 [     5]: 12211
      0.01575 [     0]: 11122
      0.01109 [     2]: 11221
ROOT   5:  E=   -3388.1560873243 Eh  0.376 eV   3034.9 cm**-1
      0.64168 [     5]: 12211
      0.16821 [     3]: 12112
      0.07386 [     4]: 12121
      0.03494 [     6]: 21112
      0.02580 [     9]: 22111
      0.02354 [     2]: 11221
      0.01909 [     0]: 11122
      0.00705 [     1]: 11212
      0.00430 [     7]: 21121
ROOT   6:  E=   -3388.1543044686 Eh  0.425 eV   3426.2 cm**-1
      0.22679 [     5]: 12211
      0.21659 [     3]: 12112
      0.14729 [     1]: 11212
      0.13074 [     4]: 12121
      0.10692 [     6]: 21112
      0.05681 [     9]: 22111
      0.04977 [     2]: 11221
      0.03604 [     8]: 21211
      0.02739 [     7]: 21121
ROOT   7:  E=   -3388.0922461961 Eh  2.113 eV  17046.4 cm**-1
      0.32185 [     8]: 21211
      0.20619 [     0]: 11122
      0.15229 [     6]: 21112
      0.12303 [     2]: 11221
      0.09025 [     3]: 12112
      0.07047 [     9]: 22111
      0.02012 [     1]: 11212
      0.00956 [     7]: 21121
      0.00614 [     4]: 12121
ROOT   8:  E=   -3388.0777807011 Eh  2.507 eV  20221.2 cm**-1
      0.52695 [     4]: 12121
      0.25476 [     3]: 12112
      0.09288 [     7]: 21121
      0.04603 [     8]: 21211
      0.04124 [     6]: 21112
      0.02382 [     9]: 22111
      0.01089 [     1]: 11212
ROOT   9:  E=   -3388.0699703228 Eh  2.720 eV  21935.4 cm**-1
      0.20443 [     1]: 11212
      0.20088 [     2]: 11221
      0.15023 [     8]: 21211
      0.12273 [     3]: 12112
      0.09877 [     9]: 22111
      0.07278 [     5]: 12211
      0.05968 [     0]: 11122
      0.03747 [     4]: 12121
      0.02814 [     7]: 21121
      0.02490 [     6]: 21112

BLOCK  2 MULT= 2 NROOTS=40 
ROOT   0:  E=   -3388.0894558539 Eh
      0.17916 [    16]: 20221
      0.13396 [    14]: 20122
      0.10038 [     6]: 11212
      0.07248 [    17]: 21022
      0.07043 [     7]: 11221
      0.06575 [     5]: 11122
      0.05890 [    24]: 22021
      0.04945 [     1]: 02122
      0.03336 [    22]: 21220
      0.03096 [    26]: 22111
      0.02622 [    15]: 20212
      0.02591 [    29]: 22210
      0.02364 [    19]: 21121
      0.02311 [    21]: 21211
      0.01942 [     4]: 10222
      0.01929 [    18]: 21112
      0.01892 [     3]: 02221
      0.01676 [    28]: 22201
      0.00780 [    11]: 12202
      0.00629 [    20]: 21202
      0.00617 [    23]: 22012
      0.00428 [     9]: 12112
      0.00319 [    10]: 12121
ROOT   1:  E=   -3388.0891746088 Eh  0.008 eV     61.7 cm**-1
      0.32661 [    14]: 20122
      0.09195 [    16]: 20221
      0.08760 [    15]: 20212
      0.07605 [     5]: 11122
      0.06093 [    27]: 22120
      0.05658 [     2]: 02212
      0.05164 [    18]: 21112
      0.04611 [    19]: 21121
      0.03427 [    17]: 21022
      0.03214 [    26]: 22111
      0.02282 [    12]: 12211
      0.02078 [    29]: 22210
      0.01516 [     9]: 12112
      0.01442 [     4]: 10222
      0.01106 [     6]: 11212
      0.01006 [    24]: 22021
      0.00906 [     8]: 12022
      0.00794 [     1]: 02122
      0.00734 [    23]: 22012
      0.00599 [    21]: 21211
      0.00375 [    28]: 22201
      0.00279 [     7]: 11221
ROOT   2:  E=   -3388.0885831255 Eh  0.024 eV    191.5 cm**-1
      0.31891 [     4]: 10222
      0.18592 [    19]: 21121
      0.08430 [     6]: 11212
      0.07553 [     5]: 11122
      0.04126 [    17]: 21022
      0.03991 [    12]: 12211
      0.03818 [    26]: 22111
      0.03528 [    10]: 12121
      0.03084 [    13]: 12220
      0.02636 [    23]: 22012
      0.02223 [     0]: 01222
      0.01855 [    18]: 21112
      0.01457 [     7]: 11221
      0.01345 [    21]: 21211
      0.00942 [     9]: 12112
      0.00814 [    14]: 20122
      0.00608 [    15]: 20212
      0.00602 [     8]: 12022
      0.00573 [    11]: 12202
      0.00474 [    29]: 22210
      0.00326 [    22]: 21220
      0.00281 [     1]: 02122
ROOT   3:  E=   -3388.0882253534 Eh  0.033 eV    270.1 cm**-1
      0.34328 [     7]: 11221
      0.17757 [     5]: 11122
      0.06818 [    15]: 20212
      0.06349 [     6]: 11212
      0.06052 [    26]: 22111
      0.03799 [    14]: 20122
      0.03161 [    21]: 21211
      0.02829 [    12]: 12211
      0.02644 [     0]: 01222
      0.02231 [     3]: 02221
      0.01982 [    24]: 22021
      0.01571 [    19]: 21121
      0.01560 [     9]: 12112
      0.01531 [    18]: 21112
      0.01241 [    25]: 22102
      0.00989 [    10]: 12121
      0.00986 [    23]: 22012
      0.00889 [    17]: 21022
      0.00842 [    16]: 20221
      0.00733 [    22]: 21220
      0.00514 [     8]: 12022
      0.00473 [     4]: 10222
      0.00351 [    13]: 12220
ROOT   4:  E=   -3388.0846039438 Eh  0.132 eV   1064.9 cm**-1
      0.21415 [    19]: 21121
      0.15715 [     7]: 11221
      0.09424 [     5]: 11122
      0.09415 [    18]: 21112
      0.04246 [    20]: 21202
      0.03970 [    13]: 12220
      0.03897 [    26]: 22111
      0.03708 [     6]: 11212
      0.03566 [    10]: 12121
      0.03249 [    21]: 21211
      0.02931 [    12]: 12211
      0.02702 [     0]: 01222
      0.02605 [    14]: 20122
      0.02506 [    28]: 22201
      0.02348 [     9]: 12112
      0.01778 [    25]: 22102
      0.01719 [     3]: 02221
      0.01140 [    22]: 21220
      0.00872 [    11]: 12202
      0.00796 [    24]: 22021
      0.00496 [    15]: 20212
      0.00433 [     4]: 10222
      0.00368 [    27]: 22120
      0.00255 [    17]: 21022
ROOT   5:  E=   -3388.0828065147 Eh  0.181 eV   1459.4 cm**-1
      0.17061 [     6]: 11212
      0.13742 [    19]: 21121
      0.11572 [    17]: 21022
      0.07789 [    21]: 21211
      0.06910 [    22]: 21220
      0.06452 [    10]: 12121
      0.06339 [    11]: 12202
      0.05833 [     9]: 12112
      0.05170 [    18]: 21112
      0.03484 [     7]: 11221
      0.03447 [     5]: 11122
      0.03193 [    13]: 12220
      0.03062 [    26]: 22111
      0.01057 [    29]: 22210
      0.00816 [     4]: 10222
      0.00797 [    20]: 21202
      0.00611 [    16]: 20221
      0.00594 [     3]: 02221
      0.00498 [     2]: 02212
      0.00397 [    12]: 12211
      0.00377 [    14]: 20122
      0.00369 [    27]: 22120
ROOT   6:  E=   -3388.0825767898 Eh  0.187 eV   1509.8 cm**-1
      0.18644 [    18]: 21112
      0.11998 [    19]: 21121
      0.10270 [     7]: 11221
      0.07886 [    21]: 21211
      0.07848 [     6]: 11212
      0.06852 [     0]: 01222
      0.06661 [    12]: 12211
      0.05820 [     5]: 11122
      0.05376 [     3]: 02221
      0.03577 [    28]: 22201
      0.03211 [    23]: 22012
      0.02783 [    14]: 20122
      0.01850 [    20]: 21202
      0.01246 [    24]: 22021
      0.01044 [    26]: 22111
      0.00916 [    15]: 20212
      0.00737 [    25]: 22102
      0.00684 [    22]: 21220
      0.00645 [    29]: 22210
      0.00469 [     2]: 02212
      0.00416 [    13]: 12220
      0.00364 [    11]: 12202
      0.00362 [    27]: 22120
ROOT   7:  E=   -3388.0744704774 Eh  0.408 eV   3288.9 cm**-1
      0.15121 [     5]: 11122
      0.13093 [    12]: 12211
      0.09702 [     6]: 11212
      0.08129 [    22]: 21220
      0.06140 [    18]: 21112
      0.05859 [    10]: 12121
      0.04895 [    27]: 22120
      0.04532 [    26]: 22111
      0.04344 [    13]: 12220
      0.03756 [     9]: 12112
      0.03214 [     8]: 12022
      0.02746 [    25]: 22102
      0.02341 [     3]: 02221
      0.02280 [    28]: 22201
      0.01956 [    17]: 21022
      0.01853 [     2]: 02212
      0.01783 [    20]: 21202
      0.01577 [     1]: 02122
      0.01458 [    19]: 21121
      0.01273 [    24]: 22021
      0.01023 [    11]: 12202
      0.00943 [    29]: 22210
      0.00458 [    21]: 21211
      0.00340 [     4]: 10222
      0.00331 [     7]: 11221
      0.00314 [     0]: 01222
      0.00288 [    14]: 20122
ROOT   8:  E=   -3388.0740825708 Eh  0.418 eV   3374.0 cm**-1
      0.13215 [    17]: 21022
      0.10139 [    26]: 22111
      0.08904 [    12]: 12211
      0.08308 [     7]: 11221
      0.07362 [    13]: 12220
      0.07357 [    11]: 12202
      0.05876 [    10]: 12121
      0.05695 [    21]: 21211
      0.04651 [    24]: 22021
      0.04132 [    18]: 21112
      0.03939 [     9]: 12112
      0.02855 [     6]: 11212
      0.02605 [    20]: 21202
      0.02416 [    19]: 21121
      0.02139 [     1]: 02122
      0.02079 [     0]: 01222
      0.02040 [    29]: 22210
      0.01958 [     2]: 02212
      0.01091 [    27]: 22120
      0.00872 [     3]: 02221
      0.00612 [    16]: 20221
      0.00555 [     5]: 11122
      0.00336 [    14]: 20122
      0.00272 [    28]: 22201
ROOT   9:  E=   -3388.0694239404 Eh  0.545 eV   4396.5 cm**-1
      0.12346 [    15]: 20212
      0.11142 [    14]: 20122
      0.10825 [    16]: 20221
      0.08902 [     4]: 10222
      0.08062 [     7]: 11221
      0.07068 [     6]: 11212
      0.04975 [     5]: 11122
      0.04345 [    21]: 21211
      0.04224 [    19]: 21121
      0.03947 [    17]: 21022
      0.03813 [    22]: 21220
      0.03796 [    27]: 22120
      0.02412 [    18]: 21112
      0.02243 [    23]: 22012
      0.02125 [    28]: 22201
      0.02114 [     9]: 12112
      0.01973 [     2]: 02212
      0.01503 [    26]: 22111
      0.00953 [    11]: 12202
      0.00858 [     8]: 12022
      0.00644 [    12]: 12211
      0.00576 [    10]: 12121
      0.00403 [    29]: 22210
ROOT  10:  E=   -3388.0685070173 Eh  0.570 eV   4597.7 cm**-1
      0.19972 [     6]: 11212
      0.18963 [    21]: 21211
      0.11980 [    18]: 21112
      0.08754 [    19]: 21121
      0.05412 [     4]: 10222
      0.04992 [    12]: 12211
      0.04796 [    24]: 22021
      0.04614 [     9]: 12112
      0.03384 [    23]: 22012
      0.02008 [    11]: 12202
      0.01936 [    10]: 12121
      0.01910 [     2]: 02212
      0.01718 [    28]: 22201
      0.01665 [    29]: 22210
      0.01469 [     5]: 11122
      0.01288 [    26]: 22111
      0.01255 [     1]: 02122
      0.01154 [    16]: 20221
      0.01073 [    15]: 20212
      0.00329 [     0]: 01222
      0.00325 [    17]: 21022
      0.00256 [    22]: 21220
ROOT  11:  E=   -3388.0666985744 Eh  0.619 eV   4994.6 cm**-1
      0.20157 [    18]: 21112
      0.14893 [    26]: 22111
      0.14252 [    21]: 21211
      0.07293 [    19]: 21121
      0.05238 [     5]: 11122
      0.04764 [    10]: 12121
      0.04414 [     0]: 01222
      0.03524 [     9]: 12112
      0.03407 [     7]: 11221
      0.03383 [     8]: 12022
      0.02977 [    25]: 22102
      0.02804 [    23]: 22012
      0.02668 [    15]: 20212
      0.01586 [    20]: 21202
      0.01551 [     6]: 11212
      0.01421 [    27]: 22120
      0.01232 [    22]: 21220
      0.01176 [    12]: 12211
      0.00945 [     2]: 02212
      0.00723 [     3]: 02221
      0.00423 [    13]: 12220
      0.00405 [    29]: 22210
      0.00297 [    11]: 12202
ROOT  12:  E=   -3388.0612241958 Eh  0.768 eV   6196.1 cm**-1
      0.17613 [    12]: 12211
      0.13193 [    26]: 22111
      0.10658 [    19]: 21121
      0.07108 [     9]: 12112
      0.06453 [    27]: 22120
      0.06270 [     0]: 01222
      0.04749 [    11]: 12202
      0.04340 [    21]: 21211
      0.04061 [    29]: 22210
      0.03710 [    24]: 22021
      0.03072 [    18]: 21112
      0.02803 [    22]: 21220
      0.02197 [    25]: 22102
      0.01808 [     8]: 12022
      0.01707 [     7]: 11221
      0.01539 [     1]: 02122
      0.01360 [     2]: 02212
      0.01295 [    28]: 22201
      0.01156 [     5]: 11122
      0.01097 [    17]: 21022
      0.01037 [     6]: 11212
      0.00515 [    23]: 22012
      0.00496 [    10]: 12121
      0.00464 [    14]: 20122
      0.00334 [    15]: 20212
ROOT  13:  E=   -3388.0589525727 Eh  0.830 eV   6694.7 cm**-1
      0.10146 [    23]: 22012
      0.09589 [    21]: 21211
      0.09235 [    10]: 12121
      0.06853 [    29]: 22210
      0.06414 [     9]: 12112
      0.06069 [     4]: 10222
      0.05746 [    24]: 22021
      0.05719 [    28]: 22201
      0.05698 [    20]: 21202
      0.05103 [    19]: 21121
      0.04581 [    12]: 12211
      0.04486 [    18]: 21112
      0.03516 [    13]: 12220
      0.02405 [    25]: 22102
      0.02330 [    26]: 22111
      0.02003 [     6]: 11212
      0.01993 [     5]: 11122
      0.01703 [     3]: 02221
      0.01247 [    16]: 20221
      0.01171 [     7]: 11221
      0.01170 [     0]: 01222
      0.00935 [     1]: 02122
      0.00729 [    17]: 21022
      0.00629 [     8]: 12022
ROOT  14:  E=   -3388.0568118174 Eh  0.888 eV   7164.5 cm**-1
      0.16199 [     2]: 02212
      0.12734 [    29]: 22210
      0.12420 [    12]: 12211
      0.12047 [    10]: 12121
      0.09519 [     9]: 12112
      0.06954 [    14]: 20122
      0.05641 [    25]: 22102
      0.03322 [    21]: 21211
      0.02401 [    19]: 21121
      0.02226 [    20]: 21202
      0.01989 [    16]: 20221
      0.01896 [     5]: 11122
      0.01886 [     6]: 11212
      0.01759 [     0]: 01222
      0.01612 [    26]: 22111
      0.01516 [    18]: 21112
      0.01360 [    15]: 20212
      0.01096 [    28]: 22201
      0.00851 [    27]: 22120
      0.00613 [     4]: 10222
      0.00432 [     1]: 02122
      0.00403 [    23]: 22012
      0.00309 [    11]: 12202
      0.00292 [     7]: 11221
ROOT  15:  E=   -3388.0555124942 Eh  0.924 eV   7449.7 cm**-1
      0.13495 [    12]: 12211
      0.11945 [    26]: 22111
      0.09973 [    21]: 21211
      0.07992 [     3]: 02221
      0.07268 [    28]: 22201
      0.06556 [    17]: 21022
      0.05313 [    19]: 21121
      0.05043 [    10]: 12121
      0.04388 [     9]: 12112
      0.04106 [     1]: 02122
      0.03844 [    11]: 12202
      0.02452 [    13]: 12220
      0.02161 [     5]: 11122
      0.01996 [     7]: 11221
      0.01823 [    29]: 22210
      0.01702 [    27]: 22120
      0.01668 [     8]: 12022
      0.01416 [    20]: 21202
      0.01252 [    18]: 21112
      0.01192 [    25]: 22102
      0.01008 [    22]: 21220
      0.00769 [    23]: 22012
      0.00745 [     4]: 10222
      0.00607 [     6]: 11212
      0.00514 [     0]: 01222
      0.00496 [    24]: 22021
ROOT  16:  E=   -3388.0527790837 Eh  0.998 eV   8049.6 cm**-1
      0.16753 [     5]: 11122
      0.09772 [    26]: 22111
      0.08875 [    10]: 12121
      0.07152 [     3]: 02221
      0.06229 [     4]: 10222
      0.06028 [     7]: 11221
      0.05842 [    25]: 22102
      0.05290 [    11]: 12202
      0.05235 [    24]: 22021
      0.04711 [    21]: 21211
      0.03838 [    28]: 22201
      0.02967 [    18]: 21112
      0.02621 [    23]: 22012
      0.02585 [    12]: 12211
      0.01826 [    14]: 20122
      0.01662 [    29]: 22210
      0.01360 [     2]: 02212
      0.01263 [     9]: 12112
      0.01135 [     1]: 02122
      0.01108 [    27]: 22120
      0.00999 [    20]: 21202
      0.00747 [    13]: 12220
      0.00686 [    19]: 21121
      0.00507 [    17]: 21022
      0.00388 [    16]: 20221
ROOT  17:  E=   -3388.0522181235 Eh  1.013 eV   8172.7 cm**-1
      0.32060 [    18]: 21112
      0.10096 [    22]: 21220
      0.08954 [    20]: 21202
      0.07551 [    13]: 12220
      0.06292 [     8]: 12022
      0.05618 [     5]: 11122
      0.03643 [    23]: 22012
      0.03599 [    10]: 12121
      0.02785 [    12]: 12211
      0.02761 [    29]: 22210
      0.02475 [    15]: 20212
      0.01822 [     9]: 12112
      0.01768 [     6]: 11212
      0.01765 [    28]: 22201
      0.01635 [    21]: 21211
      0.01610 [    19]: 21121
      0.01182 [    17]: 21022
      0.00733 [     1]: 02122
      0.00624 [    24]: 22021
      0.00544 [     3]: 02221
      0.00508 [    26]: 22111
      0.00475 [    27]: 22120
      0.00403 [    14]: 20122
      0.00389 [     2]: 02212
      0.00283 [    25]: 22102
ROOT  18:  E=   -3388.0511240219 Eh  1.043 eV   8412.9 cm**-1
      0.22730 [     0]: 01222
      0.10072 [    19]: 21121
      0.09412 [    12]: 12211
      0.06725 [    14]: 20122
      0.06021 [    21]: 21211
      0.05937 [     9]: 12112
      0.05618 [    26]: 22111
      0.04548 [    10]: 12121
      0.04036 [    28]: 22201
      0.03445 [    25]: 22102
      0.02791 [     3]: 02221
      0.02757 [     1]: 02122
      0.02612 [    27]: 22120
      0.02125 [     5]: 11122
      0.01888 [    16]: 20221
      0.01713 [     7]: 11221
      0.01663 [     6]: 11212
      0.01390 [    29]: 22210
      0.01115 [     2]: 02212
      0.00908 [    15]: 20212
      0.00671 [    20]: 21202
      0.00628 [    23]: 22012
      0.00621 [    24]: 22021
ROOT  19:  E=   -3388.0507183269 Eh  1.054 eV   8501.9 cm**-1
      0.18682 [     6]: 11212
      0.11980 [     7]: 11221
      0.09398 [    28]: 22201
      0.09199 [     9]: 12112
      0.06967 [    21]: 21211
      0.05922 [    29]: 22210
      0.04486 [    12]: 12211
      0.03274 [    25]: 22102
      0.03268 [    18]: 21112
      0.03204 [    24]: 22021
      0.03107 [     5]: 11122
      0.03003 [    19]: 21121
      0.02924 [    17]: 21022
      0.02724 [    23]: 22012
      0.02324 [    26]: 22111
      0.02264 [    27]: 22120
      0.02172 [     0]: 01222
      0.01074 [    20]: 21202
      0.00789 [    10]: 12121
      0.00779 [     8]: 12022
      0.00665 [    22]: 21220
      0.00559 [    16]: 20221
      0.00391 [     1]: 02122
      0.00379 [    14]: 20122
      0.00269 [    13]: 12220
ROOT  20:  E=   -3388.0473774521 Eh  1.145 eV   9235.1 cm**-1
      0.13193 [     5]: 11122
      0.10715 [    27]: 22120
      0.08653 [    25]: 22102
      0.08565 [     7]: 11221
      0.08388 [     9]: 12112
      0.06484 [     4]: 10222
      0.06159 [    19]: 21121
      0.04652 [     8]: 12022
      0.04113 [    18]: 21112
      0.03610 [    23]: 22012
      0.03608 [    12]: 12211
      0.03444 [    26]: 22111
      0.03161 [    10]: 12121
      0.03133 [    21]: 21211
      0.02834 [    20]: 21202
      0.02049 [    29]: 22210
      0.01854 [    16]: 20221
      0.00878 [     0]: 01222
      0.00844 [    17]: 21022
      0.00772 [    24]: 22021
      0.00710 [    28]: 22201
      0.00701 [    11]: 12202
      0.00519 [    14]: 20122
      0.00423 [     1]: 02122
      0.00370 [     6]: 11212
ROOT  21:  E=   -3388.0451176623 Eh  1.207 eV   9731.1 cm**-1
      0.17669 [    17]: 21022
      0.14503 [    26]: 22111
      0.08971 [    25]: 22102
      0.08543 [    11]: 12202
      0.06636 [    19]: 21121
      0.06411 [    12]: 12211
      0.06225 [     7]: 11221
      0.04948 [    21]: 21211
      0.04584 [    13]: 12220
      0.04035 [    28]: 22201
      0.02717 [     9]: 12112
      0.01906 [     6]: 11212
      0.01685 [    18]: 21112
      0.01540 [     2]: 02212
      0.01481 [     0]: 01222
      0.01453 [    27]: 22120
      0.01181 [    10]: 12121
      0.00950 [    14]: 20122
      0.00870 [    16]: 20221
      0.00867 [     8]: 12022
      0.00805 [     3]: 02221
      0.00510 [    29]: 22210
      0.00338 [    15]: 20212
      0.00287 [    20]: 21202
ROOT  22:  E=   -3388.0434740944 Eh  1.251 eV  10091.8 cm**-1
      0.21638 [    12]: 12211
      0.11969 [     5]: 11122
      0.09278 [    11]: 12202
      0.08115 [    22]: 21220
      0.07494 [     6]: 11212
      0.06966 [    20]: 21202
      0.05819 [    29]: 22210
      0.05787 [    18]: 21112
      0.04050 [    26]: 22111
      0.03333 [    28]: 22201
      0.02457 [     8]: 12022
      0.02284 [    27]: 22120
      0.01985 [     2]: 02212
      0.01686 [    19]: 21121
      0.01508 [     9]: 12112
      0.00959 [    23]: 22012
      0.00847 [    15]: 20212
      0.00806 [    16]: 20221
      0.00677 [    13]: 12220
      0.00545 [     4]: 10222
      0.00333 [    10]: 12121
      0.00308 [     7]: 11221
ROOT  23:  E=   -3388.0392097259 Eh  1.367 eV  11027.8 cm**-1
      0.14826 [    11]: 12202
      0.10593 [     3]: 02221
      0.09271 [     5]: 11122
      0.08698 [     6]: 11212
      0.08464 [    18]: 21112
      0.07702 [    26]: 22111
      0.07187 [    19]: 21121
      0.06241 [    10]: 12121
      0.04132 [     9]: 12112
      0.03452 [    22]: 21220
      0.03309 [    27]: 22120
      0.02758 [    21]: 21211
      0.02309 [    29]: 22210
      0.01980 [     7]: 11221
      0.01956 [    17]: 21022
      0.01269 [     2]: 02212
      0.01192 [    28]: 22201
      0.00726 [     1]: 02122
      0.00594 [    15]: 20212
      0.00578 [    20]: 21202
      0.00552 [    12]: 12211
      0.00531 [    13]: 12220
      0.00468 [    25]: 22102
      0.00460 [    14]: 20122
      0.00334 [     8]: 12022
      0.00278 [    23]: 22012
ROOT  24:  E=   -3388.0375511440 Eh  1.412 eV  11391.8 cm**-1
      0.12213 [    26]: 22111
      0.11046 [     2]: 02212
      0.10568 [     6]: 11212
      0.08608 [    24]: 22021
      0.07652 [    23]: 22012
      0.05992 [    16]: 20221
      0.05976 [    15]: 20212
      0.05291 [     1]: 02122
      0.04848 [     7]: 11221
      0.04241 [    29]: 22210
      0.04012 [    19]: 21121
      0.03365 [    18]: 21112
      0.02466 [     3]: 02221
      0.02444 [     5]: 11122
      0.02045 [    13]: 12220
      0.01784 [    12]: 12211
      0.01635 [    25]: 22102
      0.01436 [    10]: 12121
      0.01420 [    20]: 21202
      0.00694 [    27]: 22120
      0.00689 [    28]: 22201
      0.00485 [     4]: 10222
      0.00371 [     0]: 01222
      0.00323 [    21]: 21211
      0.00257 [     9]: 12112
ROOT  25:  E=   -3388.0359692043 Eh  1.455 eV  11739.0 cm**-1
      0.20031 [    10]: 12121
      0.11126 [     9]: 12112
      0.08898 [    12]: 12211
      0.08289 [    26]: 22111
      0.07620 [     0]: 01222
      0.05445 [    27]: 22120
      0.05237 [     7]: 11221
      0.03401 [    21]: 21211
      0.03216 [    24]: 22021
      0.03189 [    28]: 22201
      0.03130 [    13]: 12220
      0.02925 [    18]: 21112
      0.02425 [     2]: 02212
      0.02410 [    11]: 12202
      0.01802 [    23]: 22012
      0.01727 [    17]: 21022
      0.01690 [     5]: 11122
      0.01593 [     1]: 02122
      0.01422 [    19]: 21121
      0.01348 [     3]: 02221
      0.01080 [    15]: 20212
      0.00648 [    25]: 22102
      0.00367 [     4]: 10222
      0.00320 [    14]: 20122
ROOT  26:  E=   -3388.0358066551 Eh  1.460 eV  11774.6 cm**-1
      0.22051 [     9]: 12112
      0.10808 [    10]: 12121
      0.09027 [    24]: 22021
      0.07929 [    26]: 22111
      0.07075 [    19]: 21121
      0.06571 [     6]: 11212
      0.06400 [     3]: 02221
      0.06168 [     2]: 02212
      0.05365 [    13]: 12220
      0.04569 [    29]: 22210
      0.04359 [    12]: 12211
      0.01642 [     5]: 11122
      0.01483 [     1]: 02122
      0.01348 [     8]: 12022
      0.01196 [    25]: 22102
      0.00925 [    11]: 12202
      0.00804 [    23]: 22012
      0.00545 [     4]: 10222
      0.00332 [    21]: 21211
      0.00328 [    18]: 21112
      0.00317 [    28]: 22201
ROOT  27:  E=   -3388.0356517618 Eh  1.464 eV  11808.6 cm**-1
      0.11494 [     2]: 02212
      0.08951 [    23]: 22012
      0.07751 [     9]: 12112
      0.06699 [     7]: 11221
      0.06660 [    28]: 22201
      0.06634 [    26]: 22111
      0.06632 [    17]: 21022
      0.05791 [    13]: 12220
      0.05579 [    12]: 12211
      0.03721 [    27]: 22120
      0.03704 [    25]: 22102
      0.03203 [    21]: 21211
      0.03001 [    14]: 20122
      0.02997 [    18]: 21112
      0.02960 [     0]: 01222
      0.02402 [     3]: 02221
      0.02352 [    19]: 21121
      0.02249 [     8]: 12022
      0.02233 [     5]: 11122
      0.01720 [     1]: 02122
      0.01716 [    10]: 12121
      0.00634 [    22]: 21220
      0.00326 [     4]: 10222
ROOT  28:  E=   -3387.9806859783 Eh  2.960 eV  23872.2 cm**-1
      0.15652 [    10]: 12121
      0.11901 [    21]: 21211
      0.09335 [     5]: 11122
      0.06851 [    18]: 21112
      0.06623 [     7]: 11221
      0.06613 [    26]: 22111
      0.06329 [     4]: 10222
      0.05835 [    16]: 20221
      0.05197 [     1]: 02122
      0.04838 [    19]: 21121
      0.03430 [    25]: 22102
      0.03300 [     9]: 12112
      0.02966 [    20]: 21202
      0.02809 [     8]: 12022
      0.01475 [    12]: 12211
      0.01357 [     6]: 11212
      0.01228 [     0]: 01222
      0.00967 [    22]: 21220
      0.00909 [    24]: 22021
      0.00708 [     2]: 02212
      0.00638 [    28]: 22201
      0.00569 [    23]: 22012
ROOT  29:  E=   -3387.9802217545 Eh  2.972 eV  23974.1 cm**-1
      0.15929 [    15]: 20212
      0.14176 [     8]: 12022
      0.06763 [    16]: 20221
      0.06503 [     1]: 02122
      0.05898 [    13]: 12220
      0.05781 [    12]: 12211
      0.04702 [    26]: 22111
      0.04147 [    24]: 22021
      0.04105 [    22]: 21220
      0.03860 [     3]: 02221
      0.03670 [    18]: 21112
      0.02979 [    27]: 22120
      0.02856 [     5]: 11122
      0.02727 [     9]: 12112
      0.02107 [    10]: 12121
      0.01962 [     6]: 11212
      0.01697 [    29]: 22210
      0.01148 [    21]: 21211
      0.01117 [    23]: 22012
      0.01088 [     2]: 02212
      0.01046 [    20]: 21202
      0.01029 [     4]: 10222
      0.01026 [    28]: 22201
      0.00947 [     0]: 01222
      0.00900 [    25]: 22102
      0.00806 [    11]: 12202
      0.00786 [     7]: 11221
ROOT  30:  E=   -3387.9741553279 Eh  3.137 eV  25305.5 cm**-1
      0.21373 [     9]: 12112
      0.10680 [     6]: 11212
      0.09441 [    21]: 21211
      0.05611 [     7]: 11221
      0.05607 [    27]: 22120
      0.05066 [    12]: 12211
      0.04973 [    19]: 21121
      0.03697 [     5]: 11122
      0.03681 [    18]: 21112
      0.03447 [     4]: 10222
      0.02906 [    24]: 22021
      0.02605 [    10]: 12121
      0.02565 [    16]: 20221
      0.02318 [    22]: 21220
      0.02250 [    23]: 22012
      0.02012 [    28]: 22201
      0.01655 [    14]: 20122
      0.01542 [    29]: 22210
      0.01413 [    13]: 12220
      0.01112 [    25]: 22102
      0.01108 [     0]: 01222
      0.00839 [     8]: 12022
      0.00782 [    20]: 21202
      0.00724 [    11]: 12202
      0.00710 [    15]: 20212
      0.00701 [    26]: 22111
      0.00606 [     2]: 02212
      0.00569 [     3]: 02221
ROOT  31:  E=   -3387.9729056847 Eh  3.171 eV  25579.8 cm**-1
      0.23993 [    10]: 12121
      0.18164 [    21]: 21211
      0.11102 [    20]: 21202
      0.06754 [    25]: 22102
      0.06060 [     0]: 01222
      0.04104 [     8]: 12022
      0.03315 [     9]: 12112
      0.03184 [     7]: 11221
      0.02855 [    24]: 22021
      0.02839 [    23]: 22012
      0.02498 [    27]: 22120
      0.02351 [    13]: 12220
      0.01553 [     3]: 02221
      0.01406 [     1]: 02122
      0.01351 [    19]: 21121
      0.01198 [     6]: 11212
      0.01124 [    29]: 22210
      0.00948 [     2]: 02212
      0.00922 [    28]: 22201
      0.00833 [     5]: 11122
      0.00785 [    26]: 22111
      0.00544 [    12]: 12211
      0.00515 [     4]: 10222
      0.00359 [    14]: 20122
      0.00297 [    18]: 21112
      0.00287 [    17]: 21022
ROOT  32:  E=   -3387.9712048589 Eh  3.218 eV  25953.1 cm**-1
      0.12377 [     9]: 12112
      0.10749 [    11]: 12202
      0.09821 [     5]: 11122
      0.08798 [     7]: 11221
      0.06544 [    19]: 21121
      0.05611 [    12]: 12211
      0.05577 [    25]: 22102
      0.05205 [    28]: 22201
      0.04637 [    10]: 12121
      0.04559 [    21]: 21211
      0.04371 [    27]: 22120
      0.02791 [    13]: 12220
      0.02624 [    29]: 22210
      0.02503 [    18]: 21112
      0.02342 [    22]: 21220
      0.02214 [    20]: 21202
      0.01781 [     3]: 02221
      0.01588 [     6]: 11212
      0.01452 [    16]: 20221
      0.01344 [     4]: 10222
      0.01028 [     8]: 12022
      0.00615 [    23]: 22012
      0.00391 [    24]: 22021
      0.00361 [    26]: 22111
      0.00353 [     0]: 01222
      0.00266 [    15]: 20212
ROOT  33:  E=   -3387.9684232381 Eh  3.293 eV  26563.6 cm**-1
      0.11657 [     9]: 12112
      0.10703 [    18]: 21112
      0.08077 [    10]: 12121
      0.06428 [    15]: 20212
      0.06351 [     1]: 02122
      0.06199 [    22]: 21220
      0.05766 [    26]: 22111
      0.05442 [     2]: 02212
      0.05340 [    19]: 21121
      0.05113 [    12]: 12211
      0.05099 [    21]: 21211
      0.03838 [    13]: 12220
      0.03725 [     8]: 12022
      0.03393 [     3]: 02221
      0.02742 [    27]: 22120
      0.02347 [    16]: 20221
      0.02339 [     5]: 11122
      0.02113 [     0]: 01222
      0.01392 [    20]: 21202
      0.00435 [     7]: 11221
      0.00431 [     6]: 11212
      0.00408 [    29]: 22210
      0.00335 [    25]: 22102
ROOT  34:  E=   -3387.9684095328 Eh  3.294 eV  26566.6 cm**-1
      0.16021 [     6]: 11212
      0.13044 [     7]: 11221
      0.09038 [    10]: 12121
      0.07232 [    21]: 21211
      0.06962 [    23]: 22012
      0.06233 [    24]: 22021
      0.04555 [    12]: 12211
      0.03595 [     9]: 12112
      0.03409 [     8]: 12022
      0.03398 [    26]: 22111
      0.03238 [     3]: 02221
      0.02740 [     2]: 02212
      0.02556 [    29]: 22210
      0.02468 [     1]: 02122
      0.02283 [    18]: 21112
      0.02076 [    16]: 20221
      0.01654 [    27]: 22120
      0.01299 [    22]: 21220
      0.01296 [     0]: 01222
      0.01170 [     5]: 11122
      0.01127 [     4]: 10222
      0.00873 [    19]: 21121
      0.00696 [    28]: 22201
      0.00694 [    25]: 22102
      0.00672 [    11]: 12202
      0.00501 [    20]: 21202
      0.00476 [    17]: 21022
      0.00470 [    15]: 20212
ROOT  35:  E=   -3387.8784592383 Eh  5.742 eV  46308.4 cm**-1
      0.23399 [    20]: 21202
      0.12683 [    22]: 21220
      0.07538 [    17]: 21022
      0.07063 [     0]: 01222
      0.06952 [    27]: 22120
      0.04909 [    23]: 22012
      0.04336 [     1]: 02122
      0.03942 [    11]: 12202
      0.03737 [    29]: 22210
      0.03715 [    15]: 20212
      0.03603 [    21]: 21211
      0.03404 [    25]: 22102
      0.02282 [    26]: 22111
      0.01844 [     9]: 12112
      0.01796 [    14]: 20122
      0.01593 [     7]: 11221
      0.01446 [     2]: 02212
      0.01329 [    24]: 22021
      0.01134 [     3]: 02221
      0.01127 [     8]: 12022
      0.00489 [    28]: 22201
      0.00464 [     5]: 11122
      0.00317 [    10]: 12121
      0.00259 [    12]: 12211
ROOT  36:  E=   -3387.8743709965 Eh  5.853 eV  47205.7 cm**-1
      0.09874 [    25]: 22102
      0.09423 [    28]: 22201
      0.08599 [    24]: 22021
      0.08599 [     1]: 02122
      0.08212 [    13]: 12220
      0.07537 [     8]: 12022
      0.05852 [    23]: 22012
      0.04341 [     2]: 02212
      0.04169 [     6]: 11212
      0.04121 [    16]: 20221
      0.03585 [    27]: 22120
      0.03417 [     3]: 02221
      0.02768 [    22]: 21220
      0.02547 [    29]: 22210
      0.02531 [    14]: 20122
      0.02523 [     9]: 12112
      0.02505 [    26]: 22111
      0.02178 [    10]: 12121
      0.02098 [     4]: 10222
      0.01190 [    11]: 12202
      0.00967 [     7]: 11221
      0.00752 [    15]: 20212
      0.00634 [    21]: 21211
      0.00531 [    12]: 12211
      0.00346 [     5]: 11122
      0.00308 [    19]: 21121
      0.00287 [    18]: 21112
ROOT  37:  E=   -3387.8735064621 Eh  5.876 eV  47395.4 cm**-1
      0.20262 [    15]: 20212
      0.11498 [    16]: 20221
      0.10882 [    29]: 22210
      0.10280 [     2]: 02212
      0.08548 [    23]: 22012
      0.08534 [     3]: 02221
      0.05357 [     1]: 02122
      0.03607 [    28]: 22201
      0.03171 [     8]: 12022
      0.02462 [     7]: 11221
      0.02263 [    22]: 21220
      0.01436 [     4]: 10222
      0.01369 [    24]: 22021
      0.01295 [    20]: 21202
      0.01102 [    18]: 21112
      0.01038 [     9]: 12112
      0.00986 [     6]: 11212
      0.00949 [     5]: 11122
      0.00787 [    12]: 12211
      0.00786 [    21]: 21211
      0.00678 [    26]: 22111
      0.00675 [     0]: 01222
      0.00596 [    10]: 12121
      0.00511 [    11]: 12202
      0.00484 [    17]: 21022
ROOT  38:  E=   -3387.8501913070 Eh  6.511 eV  52512.5 cm**-1
      0.24405 [     8]: 12022
      0.13124 [    13]: 12220
      0.08870 [    11]: 12202
      0.07800 [     4]: 10222
      0.05721 [    28]: 22201
      0.05553 [    24]: 22021
      0.04933 [    10]: 12121
      0.04753 [     5]: 11122
      0.03671 [    16]: 20221
      0.03255 [    22]: 21220
      0.02897 [     3]: 02221
      0.02534 [    26]: 22111
      0.02300 [    23]: 22012
      0.02027 [    25]: 22102
      0.01669 [     7]: 11221
      0.01661 [    18]: 21112
      0.01475 [    19]: 21121
      0.01137 [    21]: 21211
      0.00931 [     6]: 11212
      0.00295 [    17]: 21022
      0.00286 [    27]: 22120
ROOT  39:  E=   -3387.8495729776 Eh  6.528 eV  52648.2 cm**-1
      0.24466 [     1]: 02122
      0.08974 [     3]: 02221
      0.08646 [     0]: 01222
      0.08021 [    20]: 21202
      0.07462 [    27]: 22120
      0.07209 [    22]: 21220
      0.05963 [    25]: 22102
      0.03599 [    29]: 22210
      0.03038 [     7]: 11221
      0.02365 [    14]: 20122
      0.02249 [    10]: 12121
      0.02145 [    24]: 22021
      0.02049 [    12]: 12211
      0.01911 [     9]: 12112
      0.01698 [    13]: 12220
      0.01670 [    16]: 20221
      0.01596 [    17]: 21022
      0.01393 [    21]: 21211
      0.01187 [    23]: 22012
      0.01071 [    26]: 22111
      0.01035 [     6]: 11212
      0.01032 [    28]: 22201
      0.00523 [     5]: 11122

                 <<<<<<<<<<<<<<<<<<INITIAL CI STATE CHECK>>>>>>>>>>>>>>>>>>

   E(CAS)= -3388.079014005 Eh DE=    0.000000e+00
   --- Energy gap subspaces: Ext-Act = 1.595   Act-Int = 0.054
   --- current l-shift: Up(Ext-Act) = 1.00   Dn(Act-Int) = 1.95
   N(occ)=  1.40000 1.40000 1.40000 1.40000 1.40000
   ||g|| =     3.915762e-04 Max(G)=   -6.903462e-05 Rot=66,7
   --- Orbital Update [   SuperCI]
   SUPERCI-ITER   0: DE=    -0.000000003 <r|r>=      0.000000001
   Warning: Orthogonalization failed (7e-11)! Terminating Iterations.
   <Psi(SX)|Psi(SX)>=      1.000000000 DE(SX)=-0.000000003
   Largest coefficient in the normalized |SX> wavefunction= 0.000017062
   --- Forming Natural Orbitals

MACRO-ITERATION   2: 
   ===>>> Convergence to 3.0e-02 achieved - switching to Step=DIIS
   --- Inactive Energy E0 = -3365.48253013 Eh
CI-ITERATION   0: 
 -3388.169915688   0.000000000000 (    0.00)
 -3388.169809158   0.000000000000
 -3388.160278049   0.000000000000
 -3388.158218959   0.000000000000
 -3388.156616406   0.000000000000
 -3388.156087474   0.000000000000
 -3388.154304368   0.000000000000
 -3388.092246346   0.000000000000
 -3388.077780620   0.000000000000
 -3388.069970140   0.000000000000
   CI-PROBLEM SOLVED
   DENSITIES MADE
CI-ITERATION   0: 
 -3388.089456078   0.000000000000 (    0.00)
 -3388.089174732   0.000000000000
 -3388.088583270   0.000000000000
 -3388.088225523   0.000000000000
 -3388.084604123   0.000000000000
 -3388.082806611   0.000000000000
 -3388.082576870   0.000000000000
 -3388.074470453   0.000000000000
 -3388.074082517   0.000000000000
 -3388.069424216   0.000000000000
 -3388.068507227   0.000000000000
 -3388.066698657   0.000000000000
 -3388.061224340   0.000000000000
 -3388.058952623   0.000000000000
 -3388.056811731   0.000000000000
 -3388.055512452   0.000000000000
 -3388.052779061   0.000000000000
 -3388.052218125   0.000000000000
 -3388.051123911   0.000000000000
 -3388.050718289   0.000000000000
 -3388.047377377   0.000000000000
 -3388.045117585   0.000000000000
 -3388.043474043   0.000000000000
 -3388.039209712   0.000000000000
 -3388.037550979   0.000000000000
 -3388.035968991   0.000000000000
 -3388.035806408   0.000000000000
 -3388.035651628   0.000000000000
 -3387.980685953   0.000000000000
 -3387.980221628   0.000000000000
 -3387.974155164   0.000000000000
 -3387.972905525   0.000000000000
 -3387.971204694   0.000000000000
 -3387.968423033   0.000000000000
 -3387.968409329   0.000000000000
 -3387.878459095   0.000000000000
 -3387.874370870   0.000000000000
 -3387.873506204   0.000000000000
 -3387.850190858   0.000000000000
 -3387.849572483   0.000000000000
   CI-PROBLEM SOLVED
   DENSITIES MADE
   E(CAS)= -3388.079014015 Eh DE=   -1.043600e-08
   --- Energy gap subspaces: Ext-Act = 1.608   Act-Int = 0.052
   --- current l-shift: Up(Ext-Act) = 0.50   Dn(Act-Int) = 1.45
   N(occ)=  1.40000 1.40000 1.40000 1.40000 1.40000
   ||g|| =     2.577741e-04 Max(G)=   -4.072436e-05 Rot=84,50
   --- Orbital Update [      DIIS]
   --- Forming Natural Orbitals

MACRO-ITERATION   3: 
   --- Inactive Energy E0 = -3365.48251702 Eh
CI-ITERATION   0: 
 -3388.169916150   0.000000000000 (    0.00)
 -3388.169809594   0.000000000000
 -3388.160278281   0.000000000000
 -3388.158218908   0.000000000000
 -3388.156616203   0.000000000000
 -3388.156087310   0.000000000000
 -3388.154304287   0.000000000000
 -3388.092246780   0.000000000000
 -3388.077780467   0.000000000000
 -3388.069969646   0.000000000000
   CI-PROBLEM SOLVED
   DENSITIES MADE
CI-ITERATION   0: 
 -3388.089456567   0.000000000000 (    0.00)
 -3388.089175220   0.000000000000
 -3388.088583724   0.000000000000
 -3388.088225844   0.000000000000
 -3388.084604453   0.000000000000
 -3388.082806787   0.000000000000
 -3388.082576987   0.000000000000
 -3388.074470352   0.000000000000
 -3388.074082376   0.000000000000
 -3388.069424761   0.000000000000
 -3388.068507598   0.000000000000
 -3388.066699051   0.000000000000
 -3388.061224585   0.000000000000
 -3388.058952735   0.000000000000
 -3388.056811679   0.000000000000
 -3388.055512446   0.000000000000
 -3388.052779060   0.000000000000
 -3388.052218190   0.000000000000
 -3388.051123897   0.000000000000
 -3388.050718260   0.000000000000
 -3388.047377235   0.000000000000
 -3388.045117525   0.000000000000
 -3388.043473925   0.000000000000
 -3388.039209714   0.000000000000
 -3388.037550812   0.000000000000
 -3388.035968636   0.000000000000
 -3388.035805901   0.000000000000
 -3388.035651344   0.000000000000
 -3387.980686044   0.000000000000
 -3387.980221645   0.000000000000
 -3387.974155046   0.000000000000
 -3387.972905398   0.000000000000
 -3387.971204503   0.000000000000
 -3387.968422752   0.000000000000
 -3387.968409047   0.000000000000
 -3387.878459381   0.000000000000
 -3387.874370925   0.000000000000
 -3387.873505984   0.000000000000
 -3387.850190320   0.000000000000
 -3387.849571955   0.000000000000
   CI-PROBLEM SOLVED
   DENSITIES MADE
   E(CAS)= -3388.079014040 Eh DE=   -2.465458e-08
   --- Energy gap subspaces: Ext-Act = 0.986   Act-Int = 0.017
   --- current l-shift: Up(Ext-Act) = 0.35   Dn(Act-Int) = 1.32
   N(occ)=  1.40000 1.40000 1.40000 1.40000 1.40000
   ||g|| =     2.857817e-04 Max(G)=   -3.476428e-05 Rot=89,55
   --- Orbital Update [      DIIS]
   --- SFit(Active Orbitals)

MACRO-ITERATION   4: 
   --- Inactive Energy E0 = -3365.48255167 Eh
CI-ITERATION   0: 
 -3388.169915819   0.000000000000 (    0.00)
 -3388.169809288   0.000000000000
 -3388.160278031   0.000000000000
 -3388.158219088   0.000000000000
 -3388.156617291   0.000000000000
 -3388.156088343   0.000000000000
 -3388.154304540   0.000000000000
 -3388.092246219   0.000000000000
 -3388.077780891   0.000000000000
 -3388.069970136   0.000000000000
   CI-PROBLEM SOLVED
   DENSITIES MADE
CI-ITERATION   0: 
 -3388.089455601   0.000000000000 (    0.00)
 -3388.089174038   0.000000000000
 -3388.088582733   0.000000000000
 -3388.088225223   0.000000000000
 -3388.084604159   0.000000000000
 -3388.082806465   0.000000000000
 -3388.082576758   0.000000000000
 -3388.074470736   0.000000000000
 -3388.074082797   0.000000000000
 -3388.069423668   0.000000000000
 -3388.068507007   0.000000000000
 -3388.066698298   0.000000000000
 -3388.061224692   0.000000000000
 -3388.058952780   0.000000000000
 -3388.056811876   0.000000000000
 -3388.055512667   0.000000000000
 -3388.052779063   0.000000000000
 -3388.052218012   0.000000000000
 -3388.051123703   0.000000000000
 -3388.050718252   0.000000000000
 -3388.047377416   0.000000000000
 -3388.045117553   0.000000000000
 -3388.043474121   0.000000000000
 -3388.039209758   0.000000000000
 -3388.037550778   0.000000000000
 -3388.035969178   0.000000000000
 -3388.035806669   0.000000000000
 -3388.035651806   0.000000000000
 -3387.980685440   0.000000000000
 -3387.980221193   0.000000000000
 -3387.974154820   0.000000000000
 -3387.972905331   0.000000000000
 -3387.971204499   0.000000000000
 -3387.968422798   0.000000000000
 -3387.968409093   0.000000000000
 -3387.878458281   0.000000000000
 -3387.874370468   0.000000000000
 -3387.873505363   0.000000000000
 -3387.850190320   0.000000000000
 -3387.849571918   0.000000000000
   CI-PROBLEM SOLVED
   DENSITIES MADE
   E(CAS)= -3388.079014049 Eh DE=   -9.255018e-09
   --- Energy gap subspaces: Ext-Act = 0.986   Act-Int = 0.017
   --- current l-shift: Up(Ext-Act) = 0.01   Dn(Act-Int) = 0.98
   N(occ)=  1.40000 1.40000 1.40000 1.40000 1.40000
[...]
 3 106   44406.1    225.2   0.00000   0.00001   0.00000   0.00000000001222   0.94508   0.05423   0.00069
 3 107   44406.1    225.2   0.00000   0.00076   0.00000   0.00000000035149   0.87211   0.12788   0.00001
 3 108   44701.3    223.7   0.00000   0.00000   0.00000   0.00000000002525   0.99786   0.00053   0.00162
 3 109   44701.3    223.7   0.00000   0.00001   0.00000   0.00000000036378   0.99806   0.00191   0.00003
 3 110   64289.9    155.5   0.00000   0.00000   0.00000   0.00000000001665   0.99797   0.00130   0.00073
 3 111   64289.9    155.5   0.00000   0.00001   0.00000   0.00000000062646   0.99939   0.00058   0.00003
 3 112   65088.5    153.6   0.00000   0.00002   0.00000   0.00000000013929   0.99296   0.00700   0.00004
 3 113   65088.5    153.6   0.00000   0.00000   0.00000   0.00000000000945   0.98276   0.01642   0.00082
 3 114   65502.5    152.7   0.00000   0.00000   0.00000   0.00000000035883   0.99958   0.00010   0.00032
 3 115   65502.5    152.7   0.00000   0.00000   0.00000   0.00000000017211   0.99920   0.00001   0.00079
 3 116   70311.6    142.2   0.00000   0.00000   0.00000   0.00000000052291   0.99951   0.00002   0.00047
 3 117   70311.6    142.2   0.00000   0.00000   0.00000   0.00000000098770   0.99978   0.00005   0.00017
 3 118   70823.6    141.2   0.00000   0.00000   0.00000   0.00000000003129   0.99571   0.00354   0.00075
 3 119   70823.6    141.2   0.00000   0.00003   0.00000   0.00000000035012   0.99543   0.00454   0.00003

Done

                 =============================
                 AB INITIO LIGAND FIELD THEORY
                       d7 configuration
                          2 CI blocks
                         MOs 57 to 61
                 =============================

Metal/Atom center is atom 0
orbital phases =   1.0   1.0   1.0   1.0   1.0 
Metal/Atom d-orbital parts of active orbitals
Shell 15
             57        58        59        60        61
dz2     :  0.607845  0.000181  0.000058 -0.000926 -0.000521
dxz     :  0.001290  0.608731  0.000711  0.000311 -0.000230
dyz     : -0.000253 -0.002074  0.614233  0.000015 -0.000131
dx2y2   :  0.024158 -0.003963  0.000661  0.591920  0.000680
dxy     :  0.010183  0.001017  0.000321 -0.017576  0.610166
Shell 16
             57        58        59        60        61
dz2     :  0.405619 -0.000152  0.000117  0.000278  0.000207
dxz     :  0.000666  0.403191 -0.000445  0.000031 -0.000064
dyz     : -0.000205 -0.002414  0.410580  0.000085 -0.000127
dx2y2   :  0.017523 -0.002786  0.000323  0.393728  0.000793
dxy     :  0.007486  0.000761  0.000128 -0.011567  0.404530
Shell 17
             57        58        59        60        61
dz2     :  0.218985 -0.000071 -0.000507 -0.001284  0.000657
dxz     : -0.000137  0.218141 -0.001093 -0.000420  0.000876
dyz     : -0.000218 -0.001465  0.219551 -0.000639  0.000567
dx2y2   :  0.005939 -0.002344  0.000301  0.216017 -0.003128
dxy     :  0.003464  0.001339  0.000767 -0.007371  0.223090
Shell 20
             57        58        59        60        61
dz2     :  0.010362 -0.000598 -0.000301  0.009251  0.005156
dxz     :  0.000638  0.012057 -0.000599 -0.002455 -0.000826
dyz     : -0.000707 -0.004101  0.014934  0.000688  0.001396
dx2y2   :  0.011313 -0.003118 -0.000029 -0.005180 -0.010550
dxy     :  0.004628 -0.000835  0.000753 -0.011219  0.007970

Adjusting phases of one-electron integrals               ... done
Adjusting phases of two-electron integrals               ... done


-----------------------------------------------------------------
Computing F0s from 2-electron integrals                  ... done 
-----------------------------------------------------------------
F0   =  0.874891959 a.u. =    23.807 eV =  192016.6 cm**-1
-----------------------------------------------------------------

Preparing for fit                                        ... done
Making fit matrices                                      ... done
Calculating ab initio Hamiltonian matrices               ... 
Calculating fit matrices                                 ... done
Fitting                                                  ... done

------------------------------
AILFT MATRIX ELEMENTS (CASSCF)
--------------------------------

Ligand field one-electron matrix VLFT (a.u.) : 
Orbital          dz2        dxz        dyz        dx2-y2     dxy
  dz2         -5.793408   0.000917   0.000289  -0.009747  -0.005302 
  dxz          0.000917  -5.781795   0.005104   0.002378  -0.001567 
  dyz          0.000289   0.005104  -5.798106   0.000271  -0.000514 
  dx2-y2      -0.009747   0.002378   0.000271  -5.781227   0.006254 
  dxy         -0.005302  -0.001567  -0.000514   0.006254  -5.788663 

-------------------------------------------------
Slater-Condon Parameters (electronic repulsion) : 
-------------------------------------------------
F0dd(from 2el Ints)     =  0.874891959 a.u. =    23.807 eV =  192016.6 cm**-1 (fixed)
F2dd                    =  0.393781326 a.u. =    10.715 eV =   86425.0 cm**-1
F4dd                    =  0.250543241 a.u. =     6.818 eV =   54987.9 cm**-1
-------------------
Racah Parameters : 
-------------------
A(F0dd from 2el Ints)   =  0.847053821 a.u. =    23.050 eV =  185906.8 cm**-1
B                       =  0.005195727 a.u. =     0.141 eV =    1140.3 cm**-1
C                       =  0.019884384 a.u. =     0.541 eV =    4364.1 cm**-1
C/B                     =  3.827
-------------------------------------------------------------------------------

-----------------------------------------
The ligand field one electron eigenfunctions:
-----------------------------------------
Orbital    Energy (eV)  Energy(cm-1)      dz2        dxz        dyz        dx2-y2     dxy
    1          0.000        0.0        -0.335373   0.287032  -0.876733  -0.181830  -0.058429 
    2          0.012       97.0         0.817054   0.034447  -0.392506   0.385959   0.167961 
    3          0.188     1518.2         0.064440   0.184012   0.072445  -0.455788   0.865446 
    4          0.541     4367.0        -0.100439  -0.935760  -0.268162  -0.061972   0.196251 
    5          0.756     6094.5         0.453550  -0.083183  -0.010884  -0.778711  -0.425282 
Ligand field orbitals were stored in rho.casscf.lft.gbw

Calculating ligand field Hamiltonian matrices          ... done
Diagonalizing and fitting the ligand field Hamiltonian ... done
Calculating statistical parameters                     ... done

Reference energy AI-LFT =    -22.689218240 au
Reference energy AI     =    -22.687364134 au

------------------------------------------------
COMPARISON OF AB INITIO AND LIGAND FIELD RESULTS
------------------------------------------------

Block   1
---------
   AI-Root   0: E(AI)=    0.000 eV -> LF-Root   0:     0.000 eV    S= 0.991 Delta=    0.000 eV
   AI-Root   1: E(AI)=    0.003 eV -> LF-Root   1:     0.011 eV    S= 0.993 Delta=   -0.008 eV
   AI-Root   2: E(AI)=    0.262 eV -> LF-Root   2:     0.263 eV    S= 0.998 Delta=   -0.001 eV
   AI-Root   3: E(AI)=    0.318 eV -> LF-Root   3:     0.358 eV    S= 0.985 Delta=   -0.040 eV
   AI-Root   4: E(AI)=    0.362 eV -> LF-Root   4:     0.468 eV    S= 0.767 Delta=   -0.106 eV
   AI-Root   5: E(AI)=    0.376 eV -> LF-Root   5:     0.492 eV    S= 0.926 Delta=   -0.115 eV
   AI-Root   6: E(AI)=    0.425 eV -> LF-Root   6:     0.490 eV    S= 0.716 Delta=   -0.065 eV
   AI-Root   7: E(AI)=    2.113 eV -> LF-Root   7:     2.049 eV    S= 0.999 Delta=    0.064 eV
   AI-Root   8: E(AI)=    2.507 eV -> LF-Root   8:     2.617 eV    S= 0.999 Delta=   -0.110 eV
   AI-Root   9: E(AI)=    2.720 eV -> LF-Root   9:     2.835 eV    S= 0.999 Delta=   -0.115 eV
   (Dropping RMS error for the reference energy)
   RMS error for this block =     0.082 eV =     657.7 cm**-1 

Block   2
---------
   AI-Root   0: E(AI)=    2.189 eV -> LF-Root   0:     2.262 eV    S= 0.948 Delta=   -0.073 eV
   AI-Root   1: E(AI)=    2.197 eV -> LF-Root   1:     2.264 eV    S= 0.944 Delta=   -0.067 eV
   AI-Root   2: E(AI)=    2.213 eV -> LF-Root   2:     2.277 eV    S= 0.989 Delta=   -0.063 eV
   AI-Root   3: E(AI)=    2.223 eV -> LF-Root   3:     2.310 eV    S= 0.951 Delta=   -0.087 eV
   AI-Root   4: E(AI)=    2.321 eV -> LF-Root   4:     2.327 eV    S= 0.959 Delta=   -0.005 eV
   AI-Root   5: E(AI)=    2.370 eV -> LF-Root   5:     2.448 eV    S= 0.807 Delta=   -0.078 eV
   AI-Root   6: E(AI)=    2.377 eV -> LF-Root   6:     2.450 eV    S= 0.801 Delta=   -0.073 eV
   AI-Root   7: E(AI)=    2.597 eV -> LF-Root   7:     2.629 eV    S= 0.991 Delta=   -0.031 eV
   AI-Root   8: E(AI)=    2.608 eV -> LF-Root   8:     2.640 eV    S= 0.992 Delta=   -0.033 eV
   AI-Root   9: E(AI)=    2.735 eV -> LF-Root   9:     2.790 eV    S= 0.987 Delta=   -0.056 eV
   AI-Root  10: E(AI)=    2.759 eV -> LF-Root  10:     2.866 eV    S= 0.993 Delta=   -0.106 eV
   AI-Root  11: E(AI)=    2.809 eV -> LF-Root  11:     2.919 eV    S= 0.990 Delta=   -0.110 eV
   AI-Root  12: E(AI)=    2.958 eV -> LF-Root  12:     2.982 eV    S= 0.995 Delta=   -0.025 eV
   AI-Root  13: E(AI)=    3.019 eV -> LF-Root  13:     3.040 eV    S= 0.987 Delta=   -0.020 eV
   AI-Root  14: E(AI)=    3.078 eV -> LF-Root  14:     3.108 eV    S= 0.974 Delta=   -0.030 eV
   AI-Root  15: E(AI)=    3.113 eV -> LF-Root  15:     3.136 eV    S= 0.971 Delta=   -0.023 eV
   AI-Root  16: E(AI)=    3.187 eV -> LF-Root  16:     3.260 eV    S= 0.805 Delta=   -0.073 eV
   AI-Root  17: E(AI)=    3.203 eV -> LF-Root  17:     3.206 eV    S= 0.980 Delta=   -0.003 eV
   AI-Root  18: E(AI)=    3.232 eV -> LF-Root  18:     3.284 eV    S= 0.953 Delta=   -0.051 eV
   AI-Root  19: E(AI)=    3.244 eV -> LF-Root  19:     3.258 eV    S= 0.807 Delta=   -0.014 eV
   AI-Root  20: E(AI)=    3.334 eV -> LF-Root  20:     3.363 eV    S= 0.982 Delta=   -0.028 eV
   AI-Root  21: E(AI)=    3.396 eV -> LF-Root  21:     3.440 eV    S= 0.992 Delta=   -0.044 eV
   AI-Root  22: E(AI)=    3.441 eV -> LF-Root  22:     3.469 eV    S= 0.983 Delta=   -0.028 eV
   AI-Root  23: E(AI)=    3.557 eV -> LF-Root  23:     3.605 eV    S= 0.988 Delta=   -0.049 eV
   AI-Root  24: E(AI)=    3.602 eV -> LF-Root  24:     3.700 eV    S= 0.987 Delta=   -0.098 eV
   AI-Root  25: E(AI)=    3.645 eV -> LF-Root  25:     3.751 eV    S= 0.712 Delta=   -0.107 eV
   AI-Root  26: E(AI)=    3.649 eV -> LF-Root  26:     3.752 eV    S= 0.995 Delta=   -0.102 eV
   AI-Root  27: E(AI)=    3.654 eV -> LF-Root  27:     3.642 eV    S= 0.708 Delta=    0.012 eV
   AI-Root  28: E(AI)=    5.149 eV -> LF-Root  28:     5.220 eV    S= 0.999 Delta=   -0.071 eV
   AI-Root  29: E(AI)=    5.162 eV -> LF-Root  29:     5.240 eV    S= 0.999 Delta=   -0.078 eV
   AI-Root  30: E(AI)=    5.327 eV -> LF-Root  30:     5.385 eV    S= 0.999 Delta=   -0.058 eV
   AI-Root  31: E(AI)=    5.361 eV -> LF-Root  31:     5.416 eV    S= 0.999 Delta=   -0.055 eV
   AI-Root  32: E(AI)=    5.407 eV -> LF-Root  32:     5.462 eV    S= 0.999 Delta=   -0.055 eV
   AI-Root  33: E(AI)=    5.483 eV -> LF-Root  33:     5.550 eV    S= 0.999 Delta=   -0.067 eV
   AI-Root  34: E(AI)=    5.483 eV -> LF-Root  34:     5.550 eV    S= 0.999 Delta=   -0.067 eV
   AI-Root  35: E(AI)=    7.931 eV -> LF-Root  35:     7.897 eV    S= 0.986 Delta=    0.034 eV
   AI-Root  36: E(AI)=    8.042 eV -> LF-Root  36:     8.086 eV    S= 0.998 Delta=   -0.044 eV
   AI-Root  37: E(AI)=    8.066 eV -> LF-Root  37:     8.169 eV    S= 0.985 Delta=   -0.103 eV
   AI-Root  38: E(AI)=    8.700 eV -> LF-Root  38:     8.702 eV    S= 0.998 Delta=   -0.002 eV
   AI-Root  39: E(AI)=    8.717 eV -> LF-Root  39:     8.711 eV    S= 0.998 Delta=    0.006 eV
   RMS error for this block =     0.062 eV =     498.4 cm**-1 

Total RMS error g=     0.066 eV =     531.3 cm**-1
Note: Dropped RMS error for the reference energy.

Confidence intervals (95%) computed from the square root of the
diagonal elements of the covariance matrix:
H(dz2   ,dz2   )=  0.000313036 a.u. =     0.009 eV =      68.7 cm**-1
H(dxz   ,dz2   )=  0.000264833 a.u. =     0.007 eV =      58.1 cm**-1
H(dxz   ,dxz   )=  0.000313036 a.u. =     0.009 eV =      68.7 cm**-1
H(dyz   ,dz2   )=  0.000264833 a.u. =     0.007 eV =      58.1 cm**-1
H(dyz   ,dxz   )=  0.000264833 a.u. =     0.007 eV =      58.1 cm**-1
H(dyz   ,dyz   )=  0.000313036 a.u. =     0.009 eV =      68.7 cm**-1
H(dx2-y2,dz2   )=  0.000264833 a.u. =     0.007 eV =      58.1 cm**-1
H(dx2-y2,dxz   )=  0.000264833 a.u. =     0.007 eV =      58.1 cm**-1
H(dx2-y2,dyz   )=  0.000264833 a.u. =     0.007 eV =      58.1 cm**-1
H(dx2-y2,dx2-y2)=  0.000313036 a.u. =     0.009 eV =      68.7 cm**-1
H(dxy   ,dz2   )=  0.000264833 a.u. =     0.007 eV =      58.1 cm**-1
H(dxy   ,dxz   )=  0.000264833 a.u. =     0.007 eV =      58.1 cm**-1
H(dxy   ,dyz   )=  0.000264833 a.u. =     0.007 eV =      58.1 cm**-1
H(dxy   ,dx2-y2)=  0.000264833 a.u. =     0.007 eV =      58.1 cm**-1
H(dxy   ,dxy   )=  0.000313036 a.u. =     0.009 eV =      68.7 cm**-1
F2dd            =  0.001124170 a.u. =     0.031 eV =     246.7 cm**-1
F4dd            =  0.001630446 a.u. =     0.044 eV =     357.8 cm**-1
Pearson's correlation coefficient =    1.000 (should be close to 1)

----------------------------------------------
SPIN ORBIT COUPLING (based on CASSCF orbitals)
----------------------------------------------

AI-SOC-X integrals (cm-1)
                  0          1          2          3          4    
      0       0.000000 -10.955681 902.635020   0.139289   0.844539
      1      10.955681  -0.000000  -2.655213 -12.810747 505.098305
      2     -902.635020   2.655213   0.000000 -494.929789   0.994312
      3      -0.139289  12.810747 494.929789   0.000000   0.197819
      4      -0.844539 -505.098305  -0.994312  -0.197819   0.000000
AI-SOC-Y integrals (cm-1)
                  0          1          2          3          4    
      0       0.000000 -856.294775   7.034963  -1.460899   1.640780
      1     856.294775  -0.000000  -0.472720 -491.431549   1.178486
      2      -7.034963   0.472720  -0.000000  14.841955 -509.946257
      3       1.460899 491.431549 -14.841955  -0.000000  -0.345173
      4      -1.640780  -1.178486 509.946257   0.345173   0.000000
AI-SOC-Z integrals (cm-1)
                  0          1          2          3          4    
      0       0.000000  -0.041548  -1.287572  18.096992 -40.873109
      1       0.041548   0.000000 -512.572784   0.459634   6.826561
      2       1.287572 512.572784  -0.000000   0.772986  -2.029669
      3     -18.096992  -0.459634  -0.772986   0.000000 -981.892636
      4      40.873109  -6.826561   2.029669 981.892636  -0.000000

Fit to the SOC matrix elements
a = 15.000000
b =     0.933 eV =    7524.3 cm**-1
SOC constant zeta =     0.062 eV =     501.6 cm**-1


LF-SOC-X integrals (cm-1)
                  0          1          2          3          4    
      0       0.000000  -0.000000 868.833604  -0.000000  -0.000000
      1       0.000000   0.000000  -0.000000  -0.000000 501.621315
      2     -868.833604   0.000000   0.000000 -501.621315  -0.000000
      3       0.000000   0.000000 501.621315   0.000000  -0.000000
      4       0.000000 -501.621315   0.000000   0.000000   0.000000
LF-SOC-Y integrals (cm-1)
                  0          1          2          3          4    
      0       0.000000 -868.833604  -0.000000  -0.000000  -0.000000
      1     868.833604   0.000000  -0.000000 -501.621315  -0.000000
      2       0.000000   0.000000   0.000000  -0.000000 -501.621315
      3       0.000000 501.621315   0.000000   0.000000  -0.000000
      4       0.000000   0.000000 501.621315   0.000000   0.000000
LF-SOC-Z integrals (cm-1)
                  0          1          2          3          4    
      0       0.000000  -0.000000  -0.000000  -0.000000  -0.000000
      1       0.000000   0.000000 -501.621315  -0.000000  -0.000000
      2       0.000000 501.621315   0.000000  -0.000000  -0.000000
      3       0.000000   0.000000   0.000000   0.000000 -1003.242630
      4       0.000000   0.000000   0.000000 1003.242630   0.000000

RMS error of nonzero matrix elements =   12.8 cm**-1


-----SOC-CONSTANTS-----
---All Values in cm-1---
ZETA_D = 501.62 
------------------------




---AILFT COMPLETED SUCCESFULLY!---

--------------
CASSCF TIMINGS
--------------

Total time                       ...       62.4 sec
Sum of individual times          ...       60.7 sec ( 97.3%)

Calculation of AO operators
   F(Core) operator              ...       17.2 sec ( 27.6%)
   G(Act) operator               ...       15.9 sec ( 25.5%)
   J(AO) operators               ...        0.0 sec (  0.0%)
Calculation of MO transformed quantities
   J(MO) operators               ...        3.1 sec (  5.0%)
   (pq|rs) integrals             ...        0.0 sec (  0.0%)
   AO->MO one electron integrals ...        0.1 sec (  0.1%)
Configuration interaction steps
   CI-setup phase                ...        0.0 sec (  0.0%)
   CI-solution phase             ...        0.2 sec (  0.3%)
   Generation of densities       ...        0.0 sec (  0.0%)
Orbital improvement steps
   Orbital gradient              ...        0.0 sec (  0.0%)
   O(1) converger                ...        0.2 sec (  0.4%)
Properties                       ...       15.3 sec ( 24.6%)
   SOC integral calculation      ...        8.5 sec ( 13.6%)
   SSC RMEs (incl. integrals)    ...        0.0 sec (  0.0%)
   SOC RMEs                      ...        0.1 sec (  0.1%)

Maximum memory used throughout the entire CASSCF-calculation: 421.0 MB

-------------------------   --------------------
FINAL SINGLE POINT ENERGY     -3388.079014034141
-------------------------   --------------------


                            ***************************************
                            *     ORCA property calculations      *
                            ***************************************

                                    ---------------------
                                    Active property flags
                                    ---------------------
   (+) Dipole Moment


------------------------------------------------------------------------------
                       ORCA ELECTRIC PROPERTIES CALCULATION
------------------------------------------------------------------------------

Dipole Moment Calculation                       ... on
Quadrupole Moment Calculation                   ... off
Polarizability Calculation                      ... off
GBWName                                         ... rho.gbw
Electron density                                ... rho.scfp
The origin for moment calculation is the CENTER OF MASS  = ( 0.003422, -0.004526  0.027912)

-------------
DIPOLE MOMENT
-------------
                                X             Y             Z
Electronic contribution:      0.01746      -0.40212       1.88226
Nuclear contribution   :     -0.02024       0.20026      -0.94685
                        -----------------------------------------
Total Dipole Moment    :     -0.00278      -0.20187       0.93541
                        -----------------------------------------
Magnitude (a.u.)       :      0.95695
Magnitude (Debye)      :      2.43237



--------------------
Rotational spectrum 
--------------------
 
Rotational constants in cm-1:     0.053516     0.008055     0.007190 
Rotational constants in MHz :  1604.362523   241.469070   215.559614 

 Dipole components along the rotational axes: 
x,y,z [a.u.] :     0.004448     0.006841    -0.956912 
x,y,z [Debye]:     0.011306     0.017389    -2.432278 

 

Timings for individual modules:

Sum of individual times         ...       75.650 sec (=   1.261 min)
GTO integral calculation        ...        4.143 sec (=   0.069 min)   5.5 %
Relativistic integrals          ...        1.606 sec (=   0.027 min)   2.1 %
SCF iterations                  ...        2.217 sec (=   0.037 min)   2.9 %
CASSCF iterations               ...       67.684 sec (=   1.128 min)  89.5 %
                             ****ORCA TERMINATED NORMALLY****
TOTAL RUN TIME: 0 days 0 hours 1 minutes 18 seconds 835 msec
