
                                 *****************
                                 * O   R   C   A *
                                 *****************

                                            #,                                       
                                            ###                                      
                                            ####                                     
                                            #####                                    
                                            ######                                   
                                           ########,                                 
                                     ,,################,,,,,                         
                               ,,#################################,,                 
                          ,,##########################################,,             
                       ,#########################################, ''#####,          
                    ,#############################################,,   '####,        
                  ,##################################################,,,,####,       
                ,###########''''           ''''###############################       
              ,#####''   ,,,,##########,,,,          '''####'''          '####       
            ,##' ,,,,###########################,,,                        '##       
           ' ,,###''''                  '''############,,,                           
         ,,##''                                '''############,,,,        ,,,,,,###''
      ,#''                                            '''#######################'''  
     '                                                          ''''####''''         
             ,#######,   #######,   ,#######,      ##                                
            ,#'     '#,  ##    ##  ,#'     '#,    #''#        ######   ,####,        
            ##       ##  ##   ,#'  ##            #'  '#       #        #'  '#        
            ##       ##  #######   ##           ,######,      #####,   #    #        
            '#,     ,#'  ##    ##  '#,     ,#' ,#      #,         ##   #,  ,#        
             '#######'   ##     ##  '#######'  #'      '#     #####' # '####'        



                  #######################################################
                  #                        -***-                        #
                  #          Department of theory and spectroscopy      #
                  #    Directorship and core code : Frank Neese         #
                  #        Max Planck Institute fuer Kohlenforschung    #
                  #                Kaiser Wilhelm Platz 1               #
                  #                 D-45470 Muelheim/Ruhr               #
                  #                      Germany                        #
                  #                                                     #
                  #                  All rights reserved                #
                  #                        -***-                        #
                  #######################################################


                         Program Version 5.0.4 -  RELEASE  -


 With contributions from (in alphabetic order):
   Daniel Aravena         : Magnetic Suceptibility
   Michael Atanasov       : Ab Initio Ligand Field Theory (pilot matlab implementation)
   Alexander A. Auer      : GIAO ZORA, VPT2 properties, NMR spectrum
   Ute Becker             : Parallelization
   Giovanni Bistoni       : ED, misc. LED, open-shell LED, HFLD
   Martin Brehm           : Molecular dynamics
   Dmytro Bykov           : SCF Hessian
   Vijay G. Chilkuri      : MRCI spin determinant printing, contributions to CSF-ICE
   Dipayan Datta          : RHF DLPNO-CCSD density
   Achintya Kumar Dutta   : EOM-CC, STEOM-CC
   Dmitry Ganyushin       : Spin-Orbit,Spin-Spin,Magnetic field MRCI
   Miquel Garcia          : C-PCM and meta-GGA Hessian, CC/C-PCM, Gaussian charge scheme
   Yang Guo               : DLPNO-NEVPT2, F12-NEVPT2, CIM, IAO-localization
   Andreas Hansen         : Spin unrestricted coupled pair/coupled cluster methods
   Benjamin Helmich-Paris : MC-RPA, TRAH-SCF, COSX integrals
   Lee Huntington         : MR-EOM, pCC
   Robert Izsak           : Overlap fitted RIJCOSX, COSX-SCS-MP3, EOM
   Marcus Kettner         : VPT2
   Christian Kollmar      : KDIIS, OOCD, Brueckner-CCSD(T), CCSD density, CASPT2, CASPT2-K
   Simone Kossmann        : Meta GGA functionals, TD-DFT gradient, OOMP2, MP2 Hessian
   Martin Krupicka        : Initial AUTO-CI
   Lucas Lang             : DCDCAS
   Marvin Lechner         : AUTO-CI (C++ implementation), FIC-MRCC
   Dagmar Lenk            : GEPOL surface, SMD
   Dimitrios Liakos       : Extrapolation schemes; Compound Job, initial MDCI parallelization
   Dimitrios Manganas     : Further ROCIS development; embedding schemes
   Dimitrios Pantazis     : SARC Basis sets
   Anastasios Papadopoulos: AUTO-CI, single reference methods and gradients
   Taras Petrenko         : DFT Hessian,TD-DFT gradient, ASA, ECA, R-Raman, ABS, FL, XAS/XES, NRVS
   Peter Pinski           : DLPNO-MP2, DLPNO-MP2 Gradient
   Christoph Reimann      : Effective Core Potentials
   Marius Retegan         : Local ZFS, SOC
   Christoph Riplinger    : Optimizer, TS searches, QM/MM, DLPNO-CCSD(T), (RO)-DLPNO pert. Triples
   Tobias Risthaus        : Range-separated hybrids, TD-DFT gradient, RPA, STAB
   Michael Roemelt        : Original ROCIS implementation
   Masaaki Saitow         : Open-shell DLPNO-CCSD energy and density
   Barbara Sandhoefer     : DKH picture change effects
   Avijit Sen             : IP-ROCIS
   Kantharuban Sivalingam : CASSCF convergence, NEVPT2, FIC-MRCI
   Bernardo de Souza      : ESD, SOC TD-DFT
   Georgi Stoychev        : AutoAux, RI-MP2 NMR, DLPNO-MP2 response
   Willem Van den Heuvel  : Paramagnetic NMR
   Boris Wezisla          : Elementary symmetry handling
   Frank Wennmohs         : Technical directorship


 We gratefully acknowledge several colleagues who have allowed us to
 interface, adapt or use parts of their codes:
   Stefan Grimme, W. Hujo, H. Kruse, P. Pracht,  : VdW corrections, initial TS optimization,
                  C. Bannwarth, S. Ehlert          DFT functionals, gCP, sTDA/sTD-DF
   Ed Valeev, F. Pavosevic, A. Kumar             : LibInt (2-el integral package), F12 methods
   Garnet Chan, S. Sharma, J. Yang, R. Olivares  : DMRG
   Ulf Ekstrom                                   : XCFun DFT Library
   Mihaly Kallay                                 : mrcc  (arbitrary order and MRCC methods)
   Jiri Pittner, Ondrej Demel                    : Mk-CCSD
   Frank Weinhold                                : gennbo (NPA and NBO analysis)
   Christopher J. Cramer and Donald G. Truhlar   : smd solvation model
   Lars Goerigk                                  : TD-DFT with DH, B97 family of functionals
   V. Asgeirsson, H. Jonsson                     : NEB implementation
   FAccTs GmbH                                   : IRC, NEB, NEB-TS, DLPNO-Multilevel, CI-OPT
                                                   MM, QMMM, 2- and 3-layer-ONIOM, Crystal-QMMM,
                                                   LR-CPCM, SF, NACMEs, symmetry and pop. for TD-DFT,
                                                   nearIR, NL-DFT gradient (VV10), updates on ESD,
                                                   ML-optimized integration grids
   S Lehtola, MJT Oliveira, MAL Marques          : LibXC Library
   Liviu Ungur et al                             : ANISO software


 Your calculation uses the libint2 library for the computation of 2-el integrals
 For citations please refer to: http://libint.valeyev.net

 Your ORCA version has been built with support for libXC version: 5.1.0
 For citations please refer to: https://tddft.org/programs/libxc/

 This ORCA versions uses:
   CBLAS   interface :  Fast vector & matrix operations
   LAPACKE interface :  Fast linear algebra routines
   SCALAPACK package :  Parallel linear algebra routines
   Shared memory     :  Shared parallel matrices
   BLAS/LAPACK       :  OpenBLAS 0.3.15  USE64BITINT DYNAMIC_ARCH NO_AFFINITY Zen SINGLE_THREADED
        Core in use  :  Zen
   Copyright (c) 2011-2014, The OpenBLAS Project




***************************************
The coordinates will be read from file: geo.xyz
***************************************


================================================================================

----- Orbital basis set information -----
Your calculation utilizes the basis: DKH-def2-TZVPP
   Exponents from def2-TZVPP [F. Weigend and R. Ahlrichs, Phys. Chem. Chem. Phys. 7, 3297 (2005)],
   recontracted for DKH2 by D. A. Pantazis.

----- AuxJ basis set information -----
Your calculation utilizes the AutoAux generation procedure.
  G. L. Stoychev, A. A. Auer, F. Neese, J. Chem. Theory Comput. 13, 554 (2017)

----- AuxC basis set information -----
Your calculation utilizes the AutoAux generation procedure.
  G. L. Stoychev, A. A. Auer, F. Neese, J. Chem. Theory Comput. 13, 554 (2017)

----- AuxJK basis set information -----
Your calculation utilizes the AutoAux generation procedure.
  G. L. Stoychev, A. A. Auer, F. Neese, J. Chem. Theory Comput. 13, 554 (2017)

================================================================================
                                        WARNINGS
                       Please study these warnings very carefully!
================================================================================


INFO   : the flag for use of the SHARK integral package has been found!

================================================================================
                                       INPUT FILE
================================================================================
NAME = rho.inp
|  1> !CASSCF  DKH DKH-def2-TZVPP  RIJCOSX NoSFitting VeryTightSCF autoaux moread SlowConv
|  2> %moinp "orb.gbw"
|  3> %pal
|  4> nprocs 40
|  5> end
|  6> %maxcore 4000
|  7> # swap
|  8> #%scf
|  9> # Rotate
| 10> #  { 61, 72 }
| 11> # end
| 12> #end
| 13> #
| 14> %rel
| 15>  picturechange 2
| 16> end
| 17> %casscf
| 18>  nel  7
| 19>  norb 5
| 20>  mult 4,2
| 21>  nroots 10,40
| 22>  maxiter 100
| 23>  ActOrbs dOrbs
| 24>  rel
| 25>   printlevel 3
| 26>   dosoc true
| 27>   gtensor true
| 28>   quad true
| 29>  end
| 30> end
| 31> * xyzfile 2 4 geo.xyz *
| 32> 
| 33>                          ****END OF INPUT****
================================================================================

                       ****************************
                       * Single Point Calculation *
                       ****************************

---------------------------------
CARTESIAN COORDINATES (ANGSTROEM)
---------------------------------
  Co     0.002785    0.977199   -0.528483
  As     2.261655    0.196961   -0.124019
  C      2.627088   -0.019996    1.776584
  C      3.567805    1.467780   -0.824807
  C      2.601391   -1.517056   -0.983677
  H      1.956517   -0.774828    2.200391
  H      3.668330   -0.355278    1.873337
  H      2.498615    0.939504    2.288867
  H      3.452238    2.431944   -0.318563
  H      4.562142    1.050436   -0.614849
  H      3.430411    1.580695   -1.905383
  H      1.921779   -2.275730   -0.581653
  H      3.639560   -1.796011   -0.759321
  H      2.470107   -1.418785   -2.066576
  As    -2.265670    0.208585   -0.095225
  C     -3.287135   -0.000150   -1.742923
  C     -3.243942    1.450591    1.045488
  C     -2.266525   -1.519069    0.803708
  H     -2.800256   -0.737735   -2.389635
  H     -4.287887   -0.353724   -1.460421
  H     -3.363549    0.966098   -2.252857
  H     -3.316856    2.424751    0.550362
  H     -4.248102    1.031367    1.194834
  H     -2.734160    1.547608    2.009887
  H     -1.777291   -2.266405    0.170212
  H     -3.314458   -1.803488    0.966593
  H     -1.754593   -1.435255    1.768131

----------------------------
CARTESIAN COORDINATES (A.U.)
----------------------------
  NO LB      ZA    FRAG     MASS         X           Y           Z
   0 Co   27.0000    0    58.930    0.005263    1.846638   -0.998688
   1 As   33.0000    0    74.920    4.273908    0.372202   -0.234361
   2 C     6.0000    0    12.011    4.964478   -0.037787    3.357258
   3 C     6.0000    0    12.011    6.742174    2.773702   -1.558660
   4 C     6.0000    0    12.011    4.915916   -2.866821   -1.858880
   5 H     1.0000    0     1.008    3.697282   -1.464213    4.158136
   6 H     1.0000    0     1.008    6.932140   -0.671379    3.540094
   7 H     1.0000    0     1.008    4.721698    1.775405    4.325332
   8 H     1.0000    0     1.008    6.523784    4.595707   -0.601998
   9 H     1.0000    0     1.008    8.621200    1.985037   -1.161897
  10 H     1.0000    0     1.008    6.482537    2.987081   -3.600652
  11 H     1.0000    0     1.008    3.631637   -4.300507   -1.099164
  12 H     1.0000    0     1.008    6.877771   -3.393969   -1.434908
  13 H     1.0000    0     1.008    4.667825   -2.681115   -3.905262
  14 As   33.0000    0    74.920   -4.281497    0.394168   -0.179949
  15 C     6.0000    0    12.011   -6.211785   -0.000283   -3.293647
  16 C     6.0000    0    12.011   -6.130162    2.741220    1.975686
  17 C     6.0000    0    12.011   -4.283111   -2.870624    1.518787
  18 H     1.0000    0     1.008   -5.291716   -1.394117   -4.515757
  19 H     1.0000    0     1.008   -8.102933   -0.668441   -2.759796
  20 H     1.0000    0     1.008   -6.356187    1.825661   -4.257282
  21 H     1.0000    0     1.008   -6.267949    4.582116    1.040033
  22 H     1.0000    0     1.008   -8.027748    1.949001    2.257909
  23 H     1.0000    0     1.008   -5.166813    2.924556    3.798135
  24 H     1.0000    0     1.008   -3.358593   -4.282885    0.321655
  25 H     1.0000    0     1.008   -6.263419   -3.408099    1.826596
  26 H     1.0000    0     1.008   -3.315700   -2.712239    3.341283

--------------------------------
INTERNAL COORDINATES (ANGSTROEM)
--------------------------------
 Co     0   0   0     0.000000000000     0.00000000     0.00000000
 As     1   0   0     2.423810056587     0.00000000     0.00000000
 C      2   1   0     1.947537961331   111.93658403     0.00000000
 C      2   1   3     1.952463445728   110.73434853   240.32290287
 C      2   1   3     1.947379641699   111.85457364   120.66454399
 H      3   2   1     1.095011082478   109.85197455    61.88905219
 H      3   2   1     1.098162221385   107.33187290   181.03178665
 H      3   2   1     1.095252818137   109.68539068   300.18371165
 H      4   2   1     1.095103012923   109.66584450    61.23728815
 H      4   2   1     1.098619582748   106.83550066   180.39218746
 H      4   2   1     1.095111951661   109.71500391   299.54987308
 H      5   2   1     1.095025737859   109.84435623   298.79219534
 H      5   2   1     1.098155845643   107.35676364   179.66485160
 H      5   2   1     1.095245053526   109.66878853    60.46163560
 As     1   2   3     2.434002811043   137.49416258   299.58367107
 C     15   1   2     1.949838103121   111.81594356   239.24073166
 C     15   1   2     1.949570062216   111.75486682   118.75017216
 C     15   1   2     1.947528389577   111.26615004   359.01636679
 H     16  15   1     1.095134834399   109.76853949    60.32986575
 H     16  15   1     1.098329010379   107.12386064   179.60217353
 H     16  15   1     1.095220107254   109.60638711   298.78728153
 H     17  15   1     1.095195764864   109.60576990    61.03748111
 H     17  15   1     1.098357561651   107.16681416   180.24069281
 H     17  15   1     1.095150659976   109.76183236   299.49653865
 H     18  15   1     1.095069383136   109.76662438   299.09917010
 H     18  15   1     1.097994113227   107.37852361   180.02437357
 H     18  15   1     1.095085078960   109.77954095    60.94857551

---------------------------
INTERNAL COORDINATES (A.U.)
---------------------------
 Co     0   0   0     0.000000000000     0.00000000     0.00000000
 As     1   0   0     4.580337207594     0.00000000     0.00000000
 C      2   1   0     3.680313382330   111.93658403     0.00000000
 C      2   1   3     3.689621198919   110.73434853   240.32290287
 C      2   1   3     3.680014201584   111.85457364   120.66454399
 H      3   2   1     2.069271059492   109.85197455    61.88905219
 H      3   2   1     2.075225849036   107.33187290   181.03178665
 H      3   2   1     2.069727873685   109.68539068   300.18371165
 H      4   2   1     2.069444782856   109.66584450    61.23728815
 H      4   2   1     2.076090136757   106.83550066   180.39218746
 H      4   2   1     2.069461674623   109.71500391   299.54987308
 H      5   2   1     2.069298754148   109.84435623   298.79219534
 H      5   2   1     2.075213800631   107.35676364   179.66485160
 H      5   2   1     2.069713200696   109.66878853    60.46163560
 As     1   2   3     4.599598722066   137.49416258   299.58367107
 C     15   1   2     3.684660020383   111.81594356   239.24073166
 C     15   1   2     3.684153496480   111.75486682   118.75017216
 C     15   1   2     3.680295294336   111.26615004   359.01636679
 H     16  15   1     2.069504916731   109.76853949    60.32986575
 H     16  15   1     2.075541034556   107.12386064   179.60217353
 H     16  15   1     2.069666059073   109.60638711   298.78728153
 H     17  15   1     2.069620058623   109.60576990    61.03748111
 H     17  15   1     2.075594988642   107.16681416   180.24069281
 H     17  15   1     2.069534822739   109.76183236   299.49653865
 H     18  15   1     2.069381231769   109.76662438   299.09917010
 H     18  15   1     2.074908170656   107.37852361   180.02437357
 H     18  15   1     2.069410892577   109.77954095    60.94857551

---------------------
BASIS SET INFORMATION
---------------------
There are 4 groups of distinct atoms

 Group   1 Type Co  : 17s12p7d2f1g contracted to 10s7p4d2f1g pattern {8111111111/6111111/4111/11/1}
 Group   2 Type As  : 17s13p8d1f contracted to 10s8p4d1f pattern {8111111111/61111111/5111/1}
 Group   3 Type C   : 11s6p2d1f contracted to 6s3p2d1f pattern {611111/411/11/1}
 Group   4 Type H   : 5s2p1d contracted to 3s2p1d pattern {311/11/1}

Atom   0Co   basis set group =>   1
Atom   1As   basis set group =>   2
Atom   2C    basis set group =>   3
Atom   3C    basis set group =>   3
Atom   4C    basis set group =>   3
Atom   5H    basis set group =>   4
Atom   6H    basis set group =>   4
Atom   7H    basis set group =>   4
Atom   8H    basis set group =>   4
Atom   9H    basis set group =>   4
Atom  10H    basis set group =>   4
Atom  11H    basis set group =>   4
Atom  12H    basis set group =>   4
Atom  13H    basis set group =>   4
Atom  14As   basis set group =>   2
Atom  15C    basis set group =>   3
Atom  16C    basis set group =>   3
Atom  17C    basis set group =>   3
Atom  18H    basis set group =>   4
Atom  19H    basis set group =>   4
Atom  20H    basis set group =>   4
Atom  21H    basis set group =>   4
Atom  22H    basis set group =>   4
Atom  23H    basis set group =>   4
Atom  24H    basis set group =>   4
Atom  25H    basis set group =>   4
Atom  26H    basis set group =>   4
---------------------------------
AUXILIARY/J BASIS SET INFORMATION
---------------------------------
There are 4 groups of distinct atoms

 Group   1 Type Co  : 22s18p17d17f16g6h3i contracted to 22s18p17d17f16g6h3i pattern {1111111111111111111111/111111111111111111/11111111111111111/11111111111111111/1111111111111111/111111/111}
 Group   2 Type As  : 21s18p17d17f12g4h contracted to 21s18p17d17f12g4h pattern {111111111111111111111/111111111111111111/11111111111111111/11111111111111111/111111111111/1111}
 Group   3 Type C   : 16s13p12d7f3g contracted to 16s13p12d7f3g pattern {1111111111111111/1111111111111/111111111111/1111111/111}
 Group   4 Type H   : 11s4p3d2f contracted to 11s4p3d2f pattern {11111111111/1111/111/11}

Atom   0Co   basis set group =>   1
Atom   1As   basis set group =>   2
Atom   2C    basis set group =>   3
Atom   3C    basis set group =>   3
Atom   4C    basis set group =>   3
Atom   5H    basis set group =>   4
Atom   6H    basis set group =>   4
Atom   7H    basis set group =>   4
Atom   8H    basis set group =>   4
Atom   9H    basis set group =>   4
Atom  10H    basis set group =>   4
Atom  11H    basis set group =>   4
Atom  12H    basis set group =>   4
Atom  13H    basis set group =>   4
Atom  14As   basis set group =>   2
Atom  15C    basis set group =>   3
Atom  16C    basis set group =>   3
Atom  17C    basis set group =>   3
Atom  18H    basis set group =>   4
Atom  19H    basis set group =>   4
Atom  20H    basis set group =>   4
Atom  21H    basis set group =>   4
Atom  22H    basis set group =>   4
Atom  23H    basis set group =>   4
Atom  24H    basis set group =>   4
Atom  25H    basis set group =>   4
Atom  26H    basis set group =>   4
---------------------------------
AUXILIARY/C BASIS SET INFORMATION
---------------------------------
There are 4 groups of distinct atoms

 Group   1 Type Co  : 22s18p17d17f16g6h3i contracted to 22s18p17d17f16g6h3i pattern {1111111111111111111111/111111111111111111/11111111111111111/11111111111111111/1111111111111111/111111/111}
 Group   2 Type As  : 21s18p17d17f12g4h contracted to 21s18p17d17f12g4h pattern {111111111111111111111/111111111111111111/11111111111111111/11111111111111111/111111111111/1111}
 Group   3 Type C   : 16s13p12d7f3g contracted to 16s13p12d7f3g pattern {1111111111111111/1111111111111/111111111111/1111111/111}
 Group   4 Type H   : 11s4p3d2f contracted to 11s4p3d2f pattern {11111111111/1111/111/11}

Atom   0Co   basis set group =>   1
Atom   1As   basis set group =>   2
Atom   2C    basis set group =>   3
Atom   3C    basis set group =>   3
Atom   4C    basis set group =>   3
Atom   5H    basis set group =>   4
Atom   6H    basis set group =>   4
Atom   7H    basis set group =>   4
Atom   8H    basis set group =>   4
Atom   9H    basis set group =>   4
Atom  10H    basis set group =>   4
Atom  11H    basis set group =>   4
Atom  12H    basis set group =>   4
Atom  13H    basis set group =>   4
Atom  14As   basis set group =>   2
Atom  15C    basis set group =>   3
Atom  16C    basis set group =>   3
Atom  17C    basis set group =>   3
Atom  18H    basis set group =>   4
Atom  19H    basis set group =>   4
Atom  20H    basis set group =>   4
Atom  21H    basis set group =>   4
Atom  22H    basis set group =>   4
Atom  23H    basis set group =>   4
Atom  24H    basis set group =>   4
Atom  25H    basis set group =>   4
Atom  26H    basis set group =>   4
----------------------------------
AUXILIARY/JK BASIS SET INFORMATION
----------------------------------
There are 4 groups of distinct atoms

 Group   1 Type Co  : 22s18p17d17f16g6h3i contracted to 22s18p17d17f16g6h3i pattern {1111111111111111111111/111111111111111111/11111111111111111/11111111111111111/1111111111111111/111111/111}
 Group   2 Type As  : 21s18p17d17f12g4h contracted to 21s18p17d17f12g4h pattern {111111111111111111111/111111111111111111/11111111111111111/11111111111111111/111111111111/1111}
 Group   3 Type C   : 16s13p12d7f3g contracted to 16s13p12d7f3g pattern {1111111111111111/1111111111111/111111111111/1111111/111}
 Group   4 Type H   : 11s4p3d2f contracted to 11s4p3d2f pattern {11111111111/1111/111/11}

Atom   0Co   basis set group =>   1
Atom   1As   basis set group =>   2
Atom   2C    basis set group =>   3
Atom   3C    basis set group =>   3
Atom   4C    basis set group =>   3
Atom   5H    basis set group =>   4
Atom   6H    basis set group =>   4
Atom   7H    basis set group =>   4
Atom   8H    basis set group =>   4
Atom   9H    basis set group =>   4
Atom  10H    basis set group =>   4
Atom  11H    basis set group =>   4
Atom  12H    basis set group =>   4
Atom  13H    basis set group =>   4
Atom  14As   basis set group =>   2
Atom  15C    basis set group =>   3
Atom  16C    basis set group =>   3
Atom  17C    basis set group =>   3
Atom  18H    basis set group =>   4
Atom  19H    basis set group =>   4
Atom  20H    basis set group =>   4
Atom  21H    basis set group =>   4
Atom  22H    basis set group =>   4
Atom  23H    basis set group =>   4
Atom  24H    basis set group =>   4
Atom  25H    basis set group =>   4
Atom  26H    basis set group =>   4


           ************************************************************
           *        Program running with 40 parallel MPI-processes    *
           *              working on a common directory               *
           ************************************************************
------------------------------------------------------------------------------
                           ORCA GTO INTEGRAL CALCULATION
                           -- RI-GTO INTEGRALS CHOSEN --
------------------------------------------------------------------------------
------------------------------------------------------------------------------
                   ___                                                        
                  /   \      - P O W E R E D   B Y -                         
                 /     \                                                     
                 |  |  |   _    _      __       _____    __    __             
                 |  |  |  | |  | |    /  \     |  _  \  |  |  /  |          
                  \  \/   | |  | |   /    \    | | | |  |  | /  /          
                 / \  \   | |__| |  /  /\  \   | |_| |  |  |/  /          
                |  |  |   |  __  | /  /__\  \  |    /   |      \           
                |  |  |   | |  | | |   __   |  |    \   |  |\   \          
                \     /   | |  | | |  |  |  |  | |\  \  |  | \   \       
                 \___/    |_|  |_| |__|  |__|  |_| \__\ |__|  \__/        
                                                                              
                      - O R C A' S   B I G   F R I E N D -                    
                                      &                                       
                       - I N T E G R A L  F E E D E R -                       
                                                                              
 v1 FN, 2020, v2 2021                                                         
------------------------------------------------------------------------------


Reading SHARK input file rho.SHARKINP.tmp ... ok
----------------------
SHARK INTEGRAL PACKAGE
----------------------

Number of atoms                             ...     27
Number of basis functions                   ...    640
Number of shells                            ...    250
Maximum angular momentum                    ...      4
Integral batch strategy                     ... SHARK/LIBINT Hybrid
RI-J (if used) integral strategy            ... SPLIT-RIJ (Revised 2003 algorithm where possible)
Printlevel                                  ...      1
Contraction scheme used                     ... SEGMENTED contraction
Coulomb Range Separation                    ... NOT USED
Exchange Range Separation                   ... NOT USED
Finite Nucleus Model                        ... NOT USED
Auxiliary Coulomb fitting basis             ... AVAILABLE
   # of basis functions in Aux-J            ...   3473
   # of shells in Aux-J                     ...    943
   Maximum angular momentum in Aux-J        ...      6
Auxiliary J/K fitting basis                 ... AVAILABLE
   # of basis functions in Aux-JK           ...   3473
   # of shells in Aux-JK                    ...    943
   Maximum angular momentum in Aux-JK       ...      6
Auxiliary Correlation fitting basis         ... AVAILABLE
   # of basis functions in Aux-C            ...   3473
   # of shells in Aux-C                     ...    943
   Maximum angular momentum in Aux-C        ...      6
Auxiliary 'external' fitting basis          ... NOT available
Integral threshold                          ...     1.000000e-12
Primitive cut-off                           ...     1.000000e-14
Primitive pair pre-selection threshold      ...     1.000000e-14

Calculating pre-screening integrals         ... done (  0.1 sec) Dimension = 250
Organizing shell pair data                  ... done (  0.2 sec)
Shell pair information
Total number of shell pairs                 ...     31375
Shell pairs after pre-screening             ...     22709
Total number of primitive shell pairs       ...     73106
Primitive shell pairs kept                  ...     39734
          la=0 lb=0:   5272 shell pairs
          la=1 lb=0:   6710 shell pairs
          la=1 lb=1:   2205 shell pairs
          la=2 lb=0:   3562 shell pairs
          la=2 lb=1:   2274 shell pairs
          la=2 lb=2:    652 shell pairs
          la=3 lb=0:    907 shell pairs
          la=3 lb=1:    596 shell pairs
          la=3 lb=2:    309 shell pairs
          la=3 lb=3:     48 shell pairs
          la=4 lb=0:     72 shell pairs
          la=4 lb=1:     55 shell pairs
          la=4 lb=2:     36 shell pairs
          la=4 lb=3:     10 shell pairs
          la=4 lb=4:      1 shell pairs

Calculating one electron integrals          ... done (  0.0 sec)
Calculating RI/J V-Matrix + Cholesky decomp.... done (  0.9 sec)
Calculating RI/JK V-Matrix + Cholesky decomp... done (  0.8 sec)
Calculating RI/C V-Matrix + Cholesky decomp.... done (  0.8 sec)
Calculating Nuclear repulsion               ... done (  0.0 sec) ENN=   1532.167620993647 Eh

SHARK setup successfully completed in   3.5 seconds

Maximum memory used throughout the entire GTOINT-calculation: 55.1 MB


           ************************************************************
           *        Program running with 40 parallel MPI-processes    *
           *              working on a common directory               *
           ************************************************************
------------------------------------------------------------------------------
                          ORCA RELATIVISTIC HAMILTONIAN
------------------------------------------------------------------------------

Relativistic Method            ... DKH
Order of DKH treatment         ...   2
Treatment of potential         ... V(e,N)
Eps parameter for DKH          ...   0.00000000010000
Nucleus model                  ... Point Nucleus
Speed of light used            ... 137.03598950000000


            ************************************************
            *        DOUGLAS-KROLL-HESS HAMILTONIAN        *
            *   Programmed by FN according to literature   *
            *        procedures. Special thanks to         *
            *       B.A. Hess, M. Reiher and A. Wolf       *
            *     University Erlangen-Nuernberg/Bonn       *
            ************************************************

Uncontracting the basis (first version)        ... done
Number of contracted basis functions           ...  640
Number of uncontracted basis functions         ...  881
Initializing the DKH file                      ... done
Calculating the relativistic integrals         ... done
Storing DKH matrices                           ... done
Code used for DKH trafo                        ... ORCA
Computing the DKH transformation               ... done
Storing the transformation variables           ... done
Transforming V and pVp to p**2 space           ... done
First transformation of V and pVp              ... done
Second transformation of Veff                  ... done
Adding kinetic energy                          ... done
Back transformation of Veff to r-space         ... done
Recovering DKH matrices                        ... done
Recontracting the H-matrix (first version)     ... done
Computing the DKH correction to the H-matrix   ... done
Reading the original H-matrix                  ... done
Adding DKH correction to the H-matrix          ... done
Storing the new modified H-matrix              ... done

Maximum memory used throughout the entire REL-calculation: 85.3 MB


           ************************************************************
           *        Program running with 40 parallel MPI-processes    *
           *              working on a common directory               *
           ************************************************************
-------------------------------------------------------------------------------
                                 ORCA SCF
-------------------------------------------------------------------------------

------------
SCF SETTINGS
------------
Hamiltonian:
 Ab initio Hamiltonian  Method          .... Hartree-Fock(GTOs)
 RI-approximation to the Coulomb term is turned on
   Number of AuxJ basis functions       .... 3473
   RIJ-COSX (HFX calculated with COS-X)).... on

Relativistic Settings:
 Scalar relativistic method             .... Douglas-Kroll-Hess
 Order of DKH procedure    Order        ....    2
 Mode of DKH-treatment                  .... V=V(e,N)
 Speed of light used       Velit        ....       137.035989
 Cutoff-constant           Eps          ....            1e-10 


General Settings:
 Integral files         IntName         .... rho
 Hartree-Fock type      HFTyp           .... CASSCF
 Total Charge           Charge          ....    2
 Multiplicity           Mult            ....    4
 Number of Electrons    NEL             ....  145
 Basis Dimension        Dim             ....  640
 Nuclear Repulsion      ENuc            ....   1532.1676209936 Eh


Diagonalization of the overlap matrix:
Smallest eigenvalue                        ... 4.126e-04
Time for diagonalization                   ...    0.067 sec
Threshold for overlap eigenvalues          ... 1.000e-08
Number of eigenvalues below threshold      ... 0
Time for construction of square roots      ...    0.076 sec
Total time needed                          ...    0.146 sec

---------------------
INITIAL GUESS: MOREAD
---------------------
Guess MOs are being read from file: orb.gbw
Input Geometry matches current geometry (good)
Input basis set matches current basis set (good)
MOs were renormalized
Gram-Schmidt orthogonalization of all MOs with pivot on actives
                      ------------------
                      INITIAL GUESS DONE (   2.1 sec)
                      ------------------
--------------------
COSX GRID GENERATION
--------------------

GRIDX 1
-------
General Integration Accuracy     IntAcc      ... 3.816
Radial Grid Type                 RadialGrid  ... OptM3 with GC (2021)
Angular Grid (max. ang.)         AngularGrid ... 1 (Lebedev-50)
Angular grid pruning method      GridPruning ... 4 (adaptive)
Weight generation scheme         WeightScheme... Becke
Basis function cutoff            BFCut       ... 1.0000e-12
Integration weight cutoff        WCut        ... 1.0000e-14
Angular grids for H and He will be reduced by one unit
Partially contracted basis set               ... on
Rotationally invariant grid construction     ... off

Total number of grid points                  ...    15815
Total number of batches                      ...      261
Average number of points per batch           ...       60
Average number of grid points per atom       ...      586

GRIDX 2
-------
General Integration Accuracy     IntAcc      ... 4.020
Radial Grid Type                 RadialGrid  ... OptM3 with GC (2021)
Angular Grid (max. ang.)         AngularGrid ... 2 (Lebedev-110)
Angular grid pruning method      GridPruning ... 4 (adaptive)
Weight generation scheme         WeightScheme... Becke
Basis function cutoff            BFCut       ... 1.0000e-12
Integration weight cutoff        WCut        ... 1.0000e-14
Angular grids for H and He will be reduced by one unit
Partially contracted basis set               ... on
Rotationally invariant grid construction     ... off

Total number of grid points                  ...    32332
Total number of batches                      ...      523
Average number of points per batch           ...       61
Average number of grid points per atom       ...     1197

GRIDX 3
-------
General Integration Accuracy     IntAcc      ... 4.338
Radial Grid Type                 RadialGrid  ... OptM3 with GC (2021)
Angular Grid (max. ang.)         AngularGrid ... 3 (Lebedev-194)
Angular grid pruning method      GridPruning ... 4 (adaptive)
Weight generation scheme         WeightScheme... Becke
Basis function cutoff            BFCut       ... 1.0000e-12
Integration weight cutoff        WCut        ... 1.0000e-14
Angular grids for H and He will be reduced by one unit
Partially contracted basis set               ... on
Rotationally invariant grid construction     ... off

Total number of grid points                  ...    70631
Total number of batches                      ...     1118
Average number of points per batch           ...       63
Average number of grid points per atom       ...     2616

Time for X-Grid setup             =    0.371 sec



 ... the calculation is a CASSCF calculation -I'm leaving here GOOD LUCK!!!



           ************************************************************
           *        Program running with 40 parallel MPI-processes    *
           *              working on a common directory               *
           ************************************************************
-------------------------------------------------------------------------------
                              ORCA-CASSCF
-------------------------------------------------------------------------------

Setting up the integral package       ... done
Setting up the integral package (RI)  ... done
Building the CAS space                ... done (10 configurations for Mult=4)
Building the CAS space                ... done (30 configurations for Mult=2)

SYSTEM-SPECIFIC SETTINGS:
Number of active electrons          ...    7
Number of active orbitals           ...    5
Total number of electrons           ...  145
Total number of orbitals            ...  640
Total number aux. functions         ... 3473

Determined orbital ranges:
   Internal       0 -   68 (  69 orbitals)
   Active        69 -   73 (   5 orbitals)
   External      74 -  639 ( 566 orbitals)
Number of rotation parameters      ...  42229

CI-STEP:
CI strategy                         ... General CI
Number of multiplicity blocks       ...    2
BLOCK  1 WEIGHT=   0.5000
  Multiplicity                      ...    4
  #(Configurations)                 ...   10
  #(CSFs)                           ...   10
  #(Roots)                          ...   10
    ROOT=0 WEIGHT=    0.050000
    ROOT=1 WEIGHT=    0.050000
    ROOT=2 WEIGHT=    0.050000
    ROOT=3 WEIGHT=    0.050000
    ROOT=4 WEIGHT=    0.050000
    ROOT=5 WEIGHT=    0.050000
    ROOT=6 WEIGHT=    0.050000
    ROOT=7 WEIGHT=    0.050000
    ROOT=8 WEIGHT=    0.050000
    ROOT=9 WEIGHT=    0.050000

BLOCK  2 WEIGHT=   0.5000
  Multiplicity                      ...    2
  #(Configurations)                 ...   30
  #(CSFs)                           ...   40
  #(Roots)                          ...   40
    ROOT=0 WEIGHT=    0.012500
    ROOT=1 WEIGHT=    0.012500
    ROOT=2 WEIGHT=    0.012500
    ROOT=3 WEIGHT=    0.012500
    ROOT=4 WEIGHT=    0.012500
    ROOT=5 WEIGHT=    0.012500
    ROOT=6 WEIGHT=    0.012500
    ROOT=7 WEIGHT=    0.012500
    ROOT=8 WEIGHT=    0.012500
    ROOT=9 WEIGHT=    0.012500
    ROOT=10 WEIGHT=    0.012500
    ROOT=11 WEIGHT=    0.012500
    ROOT=12 WEIGHT=    0.012500
    ROOT=13 WEIGHT=    0.012500
    ROOT=14 WEIGHT=    0.012500
    ROOT=15 WEIGHT=    0.012500
    ROOT=16 WEIGHT=    0.012500
    ROOT=17 WEIGHT=    0.012500
    ROOT=18 WEIGHT=    0.012500
    ROOT=19 WEIGHT=    0.012500
    ROOT=20 WEIGHT=    0.012500
    ROOT=21 WEIGHT=    0.012500
    ROOT=22 WEIGHT=    0.012500
    ROOT=23 WEIGHT=    0.012500
    ROOT=24 WEIGHT=    0.012500
    ROOT=25 WEIGHT=    0.012500
    ROOT=26 WEIGHT=    0.012500
    ROOT=27 WEIGHT=    0.012500
    ROOT=28 WEIGHT=    0.012500
    ROOT=29 WEIGHT=    0.012500
    ROOT=30 WEIGHT=    0.012500
    ROOT=31 WEIGHT=    0.012500
    ROOT=32 WEIGHT=    0.012500
    ROOT=33 WEIGHT=    0.012500
    ROOT=34 WEIGHT=    0.012500
    ROOT=35 WEIGHT=    0.012500
    ROOT=36 WEIGHT=    0.012500
    ROOT=37 WEIGHT=    0.012500
    ROOT=38 WEIGHT=    0.012500
    ROOT=39 WEIGHT=    0.012500

  PrintLevel                        ...    1
  N(GuessMat)                       ...       512
  MaxDim(CI)                        ...        10
  MaxIter(CI)                       ...        64
  Energy Tolerance CI               ...  1.00e-09
  Residual Tolerance CI             ...  1.00e-09
  Shift(CI)                         ...  1.00e-04

INTEGRAL-TRANSFORMATION-STEP:
  Algorithm                         ... RI-MO

ORBITAL-IMPROVEMENT-STEP:
  Algorithm                         ... SuperCI
  Default Parametrization           ... CAYLEY
  Act-Act rotations                 ... depends on algorithm used
  FreezeIE                          ... 95.00% of ||g||
  Until reaching FreezeIE rotations with active orbitals are damped. 

  Approx. Fock at                   ... 0.000000e+00 density convergence
  Level shift                       ... energy gap dependent. Minimum=1.000
  Switch step at gradient           ...  3.00e-02 
  Switch step at iteration          ...        50   
  Switch step to                    ... DIIS    

SCF-SETTINGS:
  Incremental                       ... off
  RIJCOSX approximation             ... on
  UseFinalGrid                      ... on
  RI-JK approximation               ... off
  AO integral handling              ... DIRECT
  Integral Neglect Thresh           ...  1.00e-12
  Primitive cutoff TCut             ...  1.00e-14
  Energy convergence tolerance      ...  1.00e-08
  Orbital gradient convergence      ...  1.00e-05
  Max. number of iterations         ...       100  


PROPERTIES-SETTINGS:
  Spin orbit coupling               ... true
  GTensor                           ... true

FINAL ORBITALS:
  Active   Orbitals                 ... d-orbitals 
  Internal Orbitals                 ... canonical 
  External Orbitals                 ... canonical 

------------------
CAS-SCF ITERATIONS
------------------


MACRO-ITERATION   1: 
   --- Canonicalize Internal Space
   --- Canonicalize External Space
   --- Inactive Energy E0 = -6121.66846486 Eh
CI-ITERATION   0: 
 -6146.947133800   0.000000000000 (    0.00)
 -6146.946552718   0.000000000000
 -6146.940913319   0.000000000000
 -6146.940774995   0.000000000000
 -6146.939713947   0.000000000000
 -6146.939262649   0.000000000000
 -6146.936448995   0.000000000000
 -6146.867097283   0.000000000000
 -6146.858700360   0.000000000000
 -6146.853765718   0.000000000000
   CI-PROBLEM SOLVED
   DENSITIES MADE
CI-ITERATION   0: 
 -6146.863384517   0.000000000000 (    0.01)
 -6146.863123567   0.000000000000
 -6146.863079606   0.000000000000
 -6146.862472825   0.000000000000
 -6146.862189933   0.000000000000
 -6146.860038225   0.000000000000
 -6146.859764917   0.000000000000
 -6146.856715180   0.000000000000
 -6146.856559750   0.000000000000
 -6146.840373914   0.000000000000
 -6146.840277616   0.000000000000
 -6146.839947976   0.000000000000
 -6146.837026241   0.000000000000
 -6146.836809597   0.000000000000
 -6146.835797471   0.000000000000
 -6146.835508862   0.000000000000
 -6146.831292979   0.000000000000
 -6146.830702883   0.000000000000
 -6146.830486827   0.000000000000
 -6146.829789681   0.000000000000
 -6146.828682262   0.000000000000
 -6146.825140557   0.000000000000
 -6146.824476298   0.000000000000
 -6146.822248746   0.000000000000
 -6146.822241963   0.000000000000
 -6146.819517206   0.000000000000
 -6146.819006753   0.000000000000
 -6146.817968301   0.000000000000
 -6146.755123141   0.000000000000
 -6146.754363442   0.000000000000
 -6146.751342481   0.000000000000
 -6146.751170359   0.000000000000
 -6146.750218668   0.000000000000
 -6146.747850593   0.000000000000
 -6146.747849801   0.000000000000
 -6146.650115886   0.000000000000
 -6146.647199290   0.000000000000
 -6146.646052732   0.000000000000
 -6146.633059494   0.000000000000
 -6146.632480067   0.000000000000
   CI-PROBLEM SOLVED
   DENSITIES MADE

                 <<<<<<<<<<<<<<<<<<INITIAL CI STATE CHECK>>>>>>>>>>>>>>>>>>

BLOCK  1 MULT= 4 NROOTS=10 
ROOT   0:  E=   -6146.9471337999 Eh
      0.62433 [     9]: 22111
      0.09692 [     5]: 12211
      0.07148 [     0]: 11122
      0.05281 [     2]: 11221
      0.04641 [     8]: 21211
      0.04361 [     6]: 21112
      0.03391 [     4]: 12121
      0.01442 [     1]: 11212
      0.01116 [     3]: 12112
      0.00497 [     7]: 21121
ROOT   1:  E=   -6146.9465527180 Eh  0.016 eV    127.5 cm**-1
      0.37336 [     7]: 21121
      0.25856 [     4]: 12121
      0.14761 [     2]: 11221
      0.06724 [     8]: 21211
      0.05738 [     5]: 12211
      0.05398 [     6]: 21112
      0.03323 [     3]: 12112
      0.00784 [     9]: 22111
ROOT   2:  E=   -6146.9409133191 Eh  0.169 eV   1365.2 cm**-1
      0.31663 [     2]: 11221
      0.29489 [     4]: 12121
      0.23149 [     0]: 11122
      0.09313 [     5]: 12211
      0.02430 [     1]: 11212
      0.02065 [     3]: 12112
      0.00807 [     9]: 22111
      0.00663 [     6]: 21112
      0.00416 [     8]: 21211
ROOT   3:  E=   -6146.9407749947 Eh  0.173 eV   1395.6 cm**-1
      0.45930 [     3]: 12112
      0.15721 [     5]: 12211
      0.10668 [     6]: 21112
      0.10196 [     8]: 21211
      0.08258 [     1]: 11212
      0.07722 [     9]: 22111
      0.00842 [     0]: 11122
      0.00518 [     2]: 11221
ROOT   4:  E=   -6146.9397139473 Eh  0.202 eV   1628.5 cm**-1
      0.48123 [     8]: 21211
      0.15900 [     4]: 12121
      0.11503 [     5]: 12211
      0.07518 [     6]: 21112
      0.04598 [     0]: 11122
      0.04524 [     9]: 22111
      0.03770 [     7]: 21121
      0.01857 [     1]: 11212
      0.01512 [     3]: 12112
      0.00695 [     2]: 11221
ROOT   5:  E=   -6146.9392626489 Eh  0.214 eV   1727.5 cm**-1
      0.51129 [     0]: 11122
      0.15735 [     2]: 11221
      0.12028 [     7]: 21121
      0.08364 [     5]: 12211
      0.08149 [     9]: 22111
      0.02908 [     6]: 21112
      0.00688 [     8]: 21211
      0.00464 [     1]: 11212
      0.00272 [     3]: 12112
      0.00263 [     4]: 12121
ROOT   6:  E=   -6146.9364489949 Eh  0.291 eV   2345.0 cm**-1
      0.53100 [     1]: 11212
      0.32779 [     6]: 21112
      0.05052 [     7]: 21121
      0.02773 [     3]: 12112
      0.01637 [     5]: 12211
      0.01296 [     0]: 11122
      0.01172 [     9]: 22111
      0.01087 [     4]: 12121
      0.00600 [     2]: 11221
      0.00504 [     8]: 21211
ROOT   7:  E=   -6146.8670972826 Eh  2.178 eV  17566.0 cm**-1
      0.28657 [     7]: 21121
      0.22846 [     4]: 12121
      0.11737 [     0]: 11122
      0.09123 [     3]: 12112
      0.06475 [     6]: 21112
      0.06295 [     5]: 12211
      0.06259 [     1]: 11212
      0.05710 [     8]: 21211
      0.02665 [     2]: 11221
ROOT   8:  E=   -6146.8587003602 Eh  2.406 eV  19408.9 cm**-1
      0.29223 [     6]: 21112
      0.20761 [     2]: 11221
      0.15009 [     3]: 12112
      0.11837 [     8]: 21211
      0.09653 [     1]: 11212
      0.07111 [     5]: 12211
      0.05169 [     7]: 21121
      0.01141 [     9]: 22111
ROOT   9:  E=   -6146.8537657182 Eh  2.541 eV  20491.9 cm**-1
      0.24627 [     5]: 12211
      0.18876 [     3]: 12112
      0.16533 [     1]: 11212
      0.13036 [     9]: 22111
      0.11161 [     8]: 21211
      0.07438 [     7]: 21121
      0.07322 [     2]: 11221
      0.01000 [     4]: 12121

BLOCK  2 MULT= 2 NROOTS=40 
ROOT   0:  E=   -6146.8633845172 Eh
      0.27099 [    29]: 22210
      0.11190 [    23]: 22012
      0.09204 [    17]: 21022
      0.07899 [    12]: 12211
      0.07722 [     8]: 12022
      0.06175 [     7]: 11221
      0.04819 [    21]: 21211
      0.04664 [     1]: 02122
      0.03496 [     5]: 11122
      0.03044 [     9]: 12112
      0.02528 [     0]: 01222
      0.02339 [     4]: 10222
      0.01822 [    26]: 22111
      0.01259 [    14]: 20122
      0.01248 [    18]: 21112
      0.01238 [    19]: 21121
      0.00677 [     2]: 02212
      0.00652 [    20]: 21202
      0.00637 [    10]: 12121
      0.00546 [    11]: 12202
      0.00494 [    28]: 22201
      0.00373 [    13]: 12220
      0.00279 [    16]: 20221
ROOT   1:  E=   -6146.8631235669 Eh  0.007 eV     57.3 cm**-1
      0.22033 [    10]: 12121
      0.15001 [    24]: 22021
      0.08902 [     5]: 11122
      0.07239 [    27]: 22120
      0.05823 [    16]: 20221
      0.05612 [    26]: 22111
      0.05228 [    20]: 21202
      0.03559 [    25]: 22102
      0.03215 [     7]: 11221
      0.03056 [     4]: 10222
      0.02449 [     6]: 11212
      0.02373 [    19]: 21121
      0.02184 [     2]: 02212
      0.02012 [     9]: 12112
      0.01708 [    12]: 12211
      0.01523 [    28]: 22201
      0.01431 [    13]: 12220
      0.01121 [     3]: 02221
      0.01002 [    21]: 21211
      0.00938 [     0]: 01222
      0.00895 [    22]: 21220
      0.00886 [    15]: 20212
      0.00784 [    18]: 21112
      0.00594 [     8]: 12022
ROOT   2:  E=   -6146.8630796058 Eh  0.008 eV     66.9 cm**-1
      0.12883 [     7]: 11221
      0.11762 [    13]: 12220
      0.09439 [    19]: 21121
      0.09149 [    18]: 21112
      0.07041 [    24]: 22021
      0.05993 [     5]: 11122
      0.05897 [    27]: 22120
      0.05897 [    22]: 21220
      0.05492 [     6]: 11212
      0.03788 [    17]: 21022
      0.03417 [    28]: 22201
      0.03374 [    25]: 22102
      0.03312 [    11]: 12202
      0.02298 [     9]: 12112
      0.02297 [    10]: 12121
      0.02164 [     1]: 02122
      0.01728 [    14]: 20122
      0.00904 [     8]: 12022
      0.00707 [     3]: 02221
      0.00425 [    20]: 21202
      0.00420 [    26]: 22111
      0.00418 [    23]: 22012
      0.00398 [    12]: 12211
      0.00381 [    21]: 21211
ROOT   3:  E=   -6146.8624728248 Eh  0.025 eV    200.1 cm**-1
      0.30386 [    26]: 22111
      0.21985 [    21]: 21211
      0.11622 [     5]: 11122
      0.06008 [     1]: 02122
      0.05992 [    18]: 21112
      0.04879 [     0]: 01222
      0.03710 [    13]: 12220
      0.02663 [    27]: 22120
      0.01908 [    14]: 20122
      0.01372 [    17]: 21022
      0.01290 [     8]: 12022
      0.01147 [     3]: 02221
      0.01146 [    22]: 21220
      0.01140 [     6]: 11212
      0.00716 [     9]: 12112
      0.00598 [     4]: 10222
      0.00557 [    10]: 12121
      0.00556 [    24]: 22021
      0.00384 [    19]: 21121
      0.00367 [     7]: 11221
      0.00359 [    15]: 20212
      0.00353 [    12]: 12211
      0.00264 [    16]: 20221
      0.00250 [    23]: 22012
ROOT   4:  E=   -6146.8621899334 Eh  0.033 eV    262.2 cm**-1
      0.16665 [    19]: 21121
      0.11224 [     9]: 12112
      0.10154 [    10]: 12121
      0.08165 [    22]: 21220
      0.07079 [    12]: 12211
      0.06475 [    18]: 21112
      0.06163 [    24]: 22021
      0.05055 [    28]: 22201
      0.03955 [     7]: 11221
      0.03743 [     2]: 02212
      0.03728 [     5]: 11122
      0.03274 [    21]: 21211
      0.02753 [    13]: 12220
      0.02058 [    20]: 21202
      0.01866 [     6]: 11212
      0.01816 [    23]: 22012
      0.01290 [     0]: 01222
      0.01225 [    16]: 20221
      0.01216 [    26]: 22111
      0.00699 [    14]: 20122
      0.00299 [     4]: 10222
      0.00287 [    29]: 22210
      0.00283 [     8]: 12022
ROOT   5:  E=   -6146.8600382248 Eh  0.091 eV    734.4 cm**-1
      0.30790 [    26]: 22111
      0.11888 [    10]: 12121
      0.09689 [     7]: 11221
      0.09514 [     4]: 10222
      0.06034 [    12]: 12211
      0.04766 [    11]: 12202
      0.03315 [     5]: 11122
      0.02715 [    18]: 21112
      0.02480 [    17]: 21022
      0.02325 [    20]: 21202
      0.02283 [    29]: 22210
      0.02165 [     1]: 02122
      0.02146 [    16]: 20221
      0.01989 [    23]: 22012
      0.01873 [    21]: 21211
      0.01436 [     9]: 12112
      0.01127 [    19]: 21121
      0.00987 [     6]: 11212
      0.00820 [    25]: 22102
      0.00516 [     3]: 02221
      0.00349 [    27]: 22120
      0.00324 [     8]: 12022
      0.00302 [    28]: 22201
ROOT   6:  E=   -6146.8597649175 Eh  0.098 eV    794.4 cm**-1
      0.16326 [    10]: 12121
      0.13798 [    15]: 20212
      0.12126 [     6]: 11212
      0.09441 [    27]: 22120
      0.09026 [    19]: 21121
      0.07348 [     9]: 12112
      0.06977 [    13]: 12220
      0.04596 [    23]: 22012
      0.04440 [     7]: 11221
      0.01746 [    21]: 21211
      0.01702 [     8]: 12022
      0.01465 [     1]: 02122
      0.01351 [    26]: 22111
      0.01284 [     2]: 02212
      0.01084 [    12]: 12211
      0.00991 [    14]: 20122
      0.00944 [     3]: 02221
      0.00932 [    16]: 20221
      0.00696 [    18]: 21112
      0.00586 [    17]: 21022
      0.00546 [     5]: 11122
      0.00543 [    20]: 21202
      0.00447 [    25]: 22102
      0.00372 [     4]: 10222
      0.00341 [    11]: 12202
      0.00306 [    22]: 21220
      0.00259 [     0]: 01222
ROOT   7:  E=   -6146.8567151800 Eh  0.181 eV   1463.8 cm**-1
      0.16538 [    21]: 21211
      0.10931 [    12]: 12211
      0.09661 [    18]: 21112
      0.07701 [    10]: 12121
      0.07672 [     3]: 02221
      0.06585 [     6]: 11212
      0.05401 [    26]: 22111
      0.05073 [    14]: 20122
      0.04926 [     9]: 12112
      0.04495 [     8]: 12022
      0.03824 [     7]: 11221
      0.03534 [    24]: 22021
      0.02288 [    23]: 22012
      0.01841 [     0]: 01222
      0.01784 [    19]: 21121
      0.01358 [     1]: 02122
      0.01340 [     2]: 02212
      0.01084 [     5]: 11122
      0.00914 [    28]: 22201
      0.00786 [    11]: 12202
      0.00716 [    29]: 22210
      0.00457 [    20]: 21202
      0.00341 [     4]: 10222
ROOT   8:  E=   -6146.8565597501 Eh  0.186 eV   1497.9 cm**-1
      0.12933 [    28]: 22201
      0.10910 [     5]: 11122
      0.10057 [    12]: 12211
      0.09395 [     7]: 11221
      0.06641 [    23]: 22012
      0.06229 [    16]: 20221
      0.05996 [    18]: 21112
      0.04440 [     2]: 02212
      0.04140 [     0]: 01222
      0.03777 [     9]: 12112
      0.03488 [     1]: 02122
      0.03445 [    19]: 21121
      0.03436 [    10]: 12121
      0.03291 [    17]: 21022
      0.02365 [    21]: 21211
      0.01929 [     6]: 11212
      0.01645 [    26]: 22111
      0.01136 [    27]: 22120
      0.01027 [    20]: 21202
      0.00962 [    14]: 20122
      0.00872 [    13]: 12220
      0.00788 [     3]: 02221
      0.00770 [    24]: 22021
ROOT   9:  E=   -6146.8403739135 Eh  0.626 eV   5050.2 cm**-1
      0.16811 [     8]: 12022
      0.13217 [     7]: 11221
      0.09734 [     5]: 11122
      0.08381 [    17]: 21022
      0.07981 [    29]: 22210
      0.07865 [    18]: 21112
      0.04246 [     4]: 10222
      0.03952 [    15]: 20212
      0.03856 [    12]: 12211
      0.03489 [     0]: 01222
      0.03303 [    24]: 22021
      0.03171 [    10]: 12121
      0.03114 [     9]: 12112
      0.02951 [    19]: 21121
      0.02655 [    21]: 21211
      0.01277 [     3]: 02221
      0.00868 [    13]: 12220
      0.00863 [     6]: 11212
      0.00530 [     1]: 02122
      0.00412 [    26]: 22111
      0.00307 [    11]: 12202
      0.00268 [     2]: 02212
ROOT  10:  E=   -6146.8402776155 Eh  0.629 eV   5071.4 cm**-1
      0.16645 [    10]: 12121
      0.12716 [     5]: 11122
      0.08139 [    21]: 21211
      0.06208 [     6]: 11212
      0.05870 [    26]: 22111
      0.05032 [    23]: 22012
      0.04019 [     3]: 02221
      0.03882 [     8]: 12022
      0.03685 [     4]: 10222
      0.03407 [    18]: 21112
      0.03379 [    17]: 21022
      0.03334 [    19]: 21121
      0.03307 [     9]: 12112
      0.02901 [     1]: 02122
      0.02539 [    13]: 12220
      0.02276 [    15]: 20212
      0.02274 [     7]: 11221
      0.02132 [    14]: 20122
      0.01954 [     0]: 01222
      0.01408 [    27]: 22120
      0.01378 [    24]: 22021
      0.00867 [    16]: 20221
      0.00778 [    22]: 21220
      0.00699 [    12]: 12211
      0.00401 [    25]: 22102
      0.00379 [    29]: 22210
ROOT  11:  E=   -6146.8399479758 Eh  0.638 eV   5143.7 cm**-1
      0.24925 [    27]: 22120
      0.07789 [    10]: 12121
      0.07495 [    12]: 12211
      0.06797 [    24]: 22021
      0.06646 [    18]: 21112
      0.06080 [    21]: 21211
      0.05401 [     5]: 11122
      0.05367 [    22]: 21220
      0.05143 [     6]: 11212
      0.03643 [    19]: 21121
      0.03532 [     9]: 12112
      0.03172 [     1]: 02122
      0.02017 [    25]: 22102
      0.01984 [    17]: 21022
      0.01660 [     4]: 10222
      0.01443 [     8]: 12022
      0.01356 [    23]: 22012
      0.01054 [    13]: 12220
      0.01019 [     2]: 02212
      0.00887 [    26]: 22111
      0.00810 [    20]: 21202
      0.00659 [    28]: 22201
      0.00428 [    16]: 20221
      0.00419 [     7]: 11221
ROOT  12:  E=   -6146.8370262405 Eh  0.717 eV   5785.0 cm**-1
      0.25834 [    26]: 22111
      0.16363 [    10]: 12121
      0.08004 [     5]: 11122
      0.07876 [    19]: 21121
      0.06222 [    21]: 21211
      0.05787 [    18]: 21112
      0.05299 [     0]: 01222
      0.04353 [     2]: 02212
      0.03872 [    29]: 22210
      0.03175 [    12]: 12211
      0.02744 [     8]: 12022
      0.02535 [    17]: 21022
      0.02133 [    13]: 12220
      0.01226 [     3]: 02221
      0.01211 [     6]: 11212
      0.00544 [    27]: 22120
      0.00520 [     7]: 11221
      0.00450 [     9]: 12112
      0.00382 [     4]: 10222
      0.00316 [    22]: 21220
      0.00293 [    14]: 20122
ROOT  13:  E=   -6146.8368095974 Eh  0.723 eV   5832.5 cm**-1
      0.15400 [    26]: 22111
      0.14186 [     7]: 11221
      0.11606 [    19]: 21121
      0.11409 [    12]: 12211
      0.07211 [    14]: 20122
      0.06682 [     5]: 11122
      0.04898 [     4]: 10222
      0.04100 [    24]: 22021
      0.03098 [    29]: 22210
      0.02779 [    18]: 21112
      0.02722 [     6]: 11212
      0.02719 [     3]: 02221
      0.02121 [    17]: 21022
      0.01913 [     9]: 12112
      0.01771 [    25]: 22102
      0.01468 [    23]: 22012
      0.01146 [     8]: 12022
      0.01132 [    13]: 12220
      0.01114 [    21]: 21211
      0.00561 [    15]: 20212
      0.00467 [     2]: 02212
      0.00426 [    28]: 22201
ROOT  14:  E=   -6146.8357974705 Eh  0.751 eV   6054.7 cm**-1
      0.10698 [    19]: 21121
      0.09960 [     5]: 11122
      0.09951 [     9]: 12112
      0.07741 [    22]: 21220
      0.07522 [     8]: 12022
      0.06264 [     3]: 02221
      0.05746 [     0]: 01222
      0.05292 [    18]: 21112
      0.04253 [    21]: 21211
      0.03874 [    25]: 22102
      0.03294 [    28]: 22201
      0.03186 [    11]: 12202
      0.03106 [    13]: 12220
      0.02688 [    12]: 12211
      0.02403 [     1]: 02122
      0.02366 [    17]: 21022
      0.02259 [    26]: 22111
      0.01560 [     2]: 02212
      0.01426 [     6]: 11212
      0.01401 [    10]: 12121
      0.01379 [    24]: 22021
      0.01372 [    20]: 21202
      0.00747 [     4]: 10222
      0.00470 [    27]: 22120
      0.00453 [    23]: 22012
      0.00364 [    16]: 20221
ROOT  15:  E=   -6146.8355088624 Eh  0.759 eV   6118.0 cm**-1
      0.11111 [     6]: 11212
      0.10426 [     9]: 12112
      0.08893 [    19]: 21121
      0.07415 [     5]: 11122
      0.07174 [    14]: 20122
      0.06483 [    27]: 22120
      0.06372 [    12]: 12211
      0.04974 [     0]: 01222
      0.04820 [     8]: 12022
      0.03995 [    10]: 12121
      0.03790 [    20]: 21202
      0.03443 [    25]: 22102
      0.02970 [    22]: 21220
      0.02793 [     7]: 11221
      0.02447 [    21]: 21211
      0.02318 [    16]: 20221
      0.01814 [    24]: 22021
      0.01369 [    11]: 12202
      0.01331 [    15]: 20212
      0.01327 [    26]: 22111
      0.01314 [     1]: 02122
      0.01301 [     3]: 02221
      0.01039 [    28]: 22201
      0.00420 [    18]: 21112
      0.00278 [    23]: 22012
ROOT  16:  E=   -6146.8312929785 Eh  0.873 eV   7043.3 cm**-1
      0.16161 [    21]: 21211
      0.12857 [    14]: 20122
      0.08039 [    12]: 12211
      0.06637 [    10]: 12121
      0.06383 [    19]: 21121
      0.05976 [    16]: 20221
      0.05743 [     8]: 12022
      0.05385 [     7]: 11221
      0.05334 [     0]: 01222
      0.05045 [     3]: 02221
      0.04918 [     6]: 11212
      0.02990 [     1]: 02122
      0.02499 [    18]: 21112
      0.02476 [    23]: 22012
      0.01866 [     5]: 11122
      0.01706 [     2]: 02212
      0.01299 [    11]: 12202
      0.00939 [    24]: 22021
      0.00924 [    26]: 22111
      0.00773 [    20]: 21202
      0.00601 [    28]: 22201
      0.00467 [    25]: 22102
      0.00381 [    15]: 20212
      0.00306 [     9]: 12112
ROOT  17:  E=   -6146.8307028828 Eh  0.889 eV   7172.8 cm**-1
      0.14533 [     5]: 11122
      0.11011 [    12]: 12211
      0.08927 [     6]: 11212
      0.07873 [     7]: 11221
      0.07042 [    28]: 22201
      0.06263 [    19]: 21121
      0.05337 [    20]: 21202
      0.04906 [     9]: 12112
      0.04105 [    17]: 21022
      0.03832 [     1]: 02122
      0.03663 [    15]: 20212
      0.02980 [    23]: 22012
      0.02481 [    26]: 22111
      0.02383 [    18]: 21112
      0.01687 [    21]: 21211
      0.01576 [    11]: 12202
      0.01500 [    25]: 22102
      0.01400 [    16]: 20221
      0.01351 [    13]: 12220
      0.01295 [     3]: 02221
      0.01257 [     8]: 12022
      0.01153 [     4]: 10222
      0.01146 [    27]: 22120
      0.00944 [    10]: 12121
      0.00632 [    14]: 20122
      0.00369 [    22]: 21220
      0.00258 [    24]: 22021
ROOT  18:  E=   -6146.8304868269 Eh  0.895 eV   7220.2 cm**-1
      0.19559 [    21]: 21211
      0.10618 [     1]: 02122
      0.09864 [    18]: 21112
      0.08640 [    29]: 22210
      0.07358 [    12]: 12211
      0.06174 [    23]: 22012
      0.05910 [    17]: 21022
      0.05571 [     9]: 12112
      0.04281 [    14]: 20122
      0.04090 [     4]: 10222
      0.03508 [    19]: 21121
      0.02977 [     5]: 11122
      0.02885 [     7]: 11221
      0.02484 [    26]: 22111
      0.02012 [    15]: 20212
      0.00804 [     3]: 02221
      0.00586 [    10]: 12121
      0.00583 [     6]: 11212
      0.00495 [     2]: 02212
      0.00473 [    22]: 21220
      0.00360 [    16]: 20221
      0.00296 [    11]: 12202
ROOT  19:  E=   -6146.8297896814 Eh  0.914 eV   7373.2 cm**-1
      0.13390 [    18]: 21112
      0.11078 [    22]: 21220
      0.07990 [    13]: 12220
      0.07161 [     9]: 12112
      0.06991 [    20]: 21202
      0.06820 [    10]: 12121
      0.05981 [    25]: 22102
      0.05948 [    28]: 22201
      0.04608 [    19]: 21121
      0.04103 [    24]: 22021
      0.03541 [    21]: 21211
      0.03186 [    12]: 12211
      0.02322 [     2]: 02212
      0.01982 [     8]: 12022
      0.01829 [    26]: 22111
      0.01807 [    17]: 21022
      0.01752 [     0]: 01222
      0.01701 [     1]: 02122
      0.01665 [     7]: 11221
      0.01541 [     5]: 11122
      0.01532 [    15]: 20212
      0.01523 [    11]: 12202
      0.00754 [    16]: 20221
      0.00429 [     6]: 11212
ROOT  20:  E=   -6146.8286822622 Eh  0.944 eV   7616.3 cm**-1
      0.12645 [     3]: 02221
      0.10598 [    15]: 20212
      0.09864 [     6]: 11212
      0.09418 [    18]: 21112
      0.09033 [    19]: 21121
      0.08553 [    29]: 22210
      0.07293 [    26]: 22111
      0.05341 [     5]: 11122
      0.04054 [    24]: 22021
      0.03654 [    12]: 12211
      0.03189 [     7]: 11221
      0.02797 [     9]: 12112
      0.02719 [     8]: 12022
      0.02190 [    16]: 20221
      0.02059 [     0]: 01222
      0.01759 [     4]: 10222
      0.01279 [    21]: 21211
      0.00820 [    13]: 12220
      0.00757 [    17]: 21022
      0.00480 [    10]: 12121
      0.00435 [    14]: 20122
      0.00382 [    11]: 12202
ROOT  21:  E=   -6146.8251405567 Eh  1.041 eV   8393.6 cm**-1
      0.14584 [     4]: 10222
      0.14517 [     5]: 11122
      0.07573 [     7]: 11221
      0.07396 [     0]: 01222
      0.06999 [    16]: 20221
      0.06262 [    25]: 22102
      0.05799 [     9]: 12112
      0.04757 [    19]: 21121
      0.03708 [    21]: 21211
      0.03355 [    26]: 22111
      0.03140 [    12]: 12211
      0.03093 [     6]: 11212
      0.02674 [    24]: 22021
      0.02607 [     1]: 02122
      0.02307 [    27]: 22120
      0.02001 [    18]: 21112
      0.01810 [    11]: 12202
      0.01150 [     3]: 02221
      0.01119 [    17]: 21022
      0.00998 [    14]: 20122
      0.00978 [    23]: 22012
      0.00933 [    10]: 12121
      0.00919 [    22]: 21220
      0.00317 [     8]: 12022
      0.00308 [    20]: 21202
      0.00262 [    15]: 20212
ROOT  22:  E=   -6146.8244762978 Eh  1.059 eV   8539.4 cm**-1
      0.17567 [     6]: 11212
      0.14486 [     9]: 12112
      0.08085 [    18]: 21112
      0.06997 [    21]: 21211
      0.06847 [     1]: 02122
      0.06621 [    10]: 12121
      0.05081 [    24]: 22021
      0.04872 [     2]: 02212
      0.04699 [    16]: 20221
      0.04016 [    15]: 20212
      0.03156 [    11]: 12202
      0.02841 [    13]: 12220
      0.02610 [     7]: 11221
      0.02460 [    17]: 21022
      0.01816 [    20]: 21202
      0.01319 [    12]: 12211
      0.01155 [    23]: 22012
      0.01001 [    26]: 22111
      0.00900 [    22]: 21220
      0.00868 [    27]: 22120
      0.00708 [    29]: 22210
      0.00541 [    14]: 20122
      0.00421 [     8]: 12022
      0.00251 [    25]: 22102
ROOT  23:  E=   -6146.8222487463 Eh  1.119 eV   9028.3 cm**-1
      0.29809 [     6]: 11212
      0.09576 [    25]: 22102
      0.08688 [    28]: 22201
      0.06043 [     9]: 12112
      0.05760 [    12]: 12211
      0.04434 [    21]: 21211
      0.04310 [    26]: 22111
      0.04090 [     5]: 11122
      0.02929 [    14]: 20122
      0.02866 [    15]: 20212
      0.02850 [     7]: 11221
      0.02612 [     0]: 01222
      0.02379 [    13]: 12220
      0.02171 [     2]: 02212
      0.01896 [    18]: 21112
      0.01658 [    16]: 20221
      0.01515 [     3]: 02221
      0.01425 [    20]: 21202
      0.01164 [    22]: 21220
      0.00707 [    10]: 12121
      0.00675 [    19]: 21121
      0.00542 [    17]: 21022
      0.00534 [     1]: 02122
      0.00463 [     8]: 12022
      0.00377 [    11]: 12202
ROOT  24:  E=   -6146.8222419625 Eh  1.120 eV   9029.7 cm**-1
      0.11701 [    11]: 12202
      0.09757 [    18]: 21112
      0.09658 [    20]: 21202
      0.09310 [     4]: 10222
      0.09223 [     7]: 11221
      0.08515 [    12]: 12211
      0.05920 [     9]: 12112
      0.05719 [    21]: 21211
      0.05643 [     0]: 01222
      0.04999 [    25]: 22102
      0.03739 [    29]: 22210
      0.03091 [     6]: 11212
      0.02516 [    26]: 22111
      0.02332 [    10]: 12121
      0.01583 [    19]: 21121
      0.01420 [     1]: 02122
      0.01249 [     5]: 11122
      0.01111 [    23]: 22012
      0.00880 [     2]: 02212
      0.00456 [    14]: 20122
      0.00384 [    16]: 20221
ROOT  25:  E=   -6146.8195172055 Eh  1.194 eV   9627.8 cm**-1
      0.11717 [    28]: 22201
      0.09713 [    15]: 20212
      0.08010 [     5]: 11122
      0.07626 [    19]: 21121
      0.06923 [     1]: 02122
      0.06608 [    18]: 21112
      0.06132 [     9]: 12112
      0.04266 [     3]: 02221
      0.04226 [    13]: 12220
      0.04183 [     6]: 11212
      0.03443 [    17]: 21022
      0.03331 [    10]: 12121
      0.03320 [    12]: 12211
      0.03176 [     2]: 02212
      0.02758 [    22]: 21220
      0.02655 [    27]: 22120
      0.02511 [    25]: 22102
      0.01811 [     7]: 11221
      0.01691 [     0]: 01222
      0.01301 [    26]: 22111
      0.01037 [    11]: 12202
      0.00801 [    21]: 21211
      0.00688 [    23]: 22012
      0.00659 [     8]: 12022
      0.00474 [    16]: 20221
      0.00465 [    29]: 22210
      0.00344 [    20]: 21202
ROOT  26:  E=   -6146.8190067534 Eh  1.208 eV   9739.8 cm**-1
      0.12571 [     4]: 10222
      0.10937 [     9]: 12112
      0.07751 [     0]: 01222
      0.06860 [    11]: 12202
      0.06569 [    29]: 22210
      0.06501 [    20]: 21202
      0.06171 [    26]: 22111
      0.05005 [    10]: 12121
      0.04661 [     7]: 11221
      0.03700 [     5]: 11122
      0.03618 [    16]: 20221
      0.03616 [    18]: 21112
      0.02796 [    21]: 21211
      0.02516 [    25]: 22102
      0.02311 [    14]: 20122
      0.02279 [    15]: 20212
      0.02085 [    23]: 22012
      0.01977 [     6]: 11212
      0.01593 [    22]: 21220
      0.01506 [    19]: 21121
      0.00879 [    12]: 12211
      0.00875 [    24]: 22021
      0.00844 [    13]: 12220
      0.00795 [     1]: 02122
      0.00665 [     3]: 02221
      0.00586 [    27]: 22120
ROOT  27:  E=   -6146.8179683006 Eh  1.236 eV   9967.7 cm**-1
      0.17092 [     7]: 11221
      0.09202 [    28]: 22201
      0.08947 [    20]: 21202
      0.07311 [     5]: 11122
      0.07192 [    19]: 21121
      0.07191 [     2]: 02212
      0.06382 [    23]: 22012
      0.05160 [    14]: 20122
      0.04239 [     0]: 01222
      0.04109 [    10]: 12121
      0.03947 [    12]: 12211
      0.03727 [    26]: 22111
      0.03656 [    25]: 22102
      0.03603 [    18]: 21112
      0.02788 [    16]: 20221
      0.01397 [     9]: 12112
      0.01012 [     6]: 11212
      0.00737 [    21]: 21211
      0.00607 [    27]: 22120
      0.00548 [     4]: 10222
      0.00424 [    22]: 21220
ROOT  28:  E=   -6146.7551231411 Eh  2.946 eV  23760.6 cm**-1
      0.15342 [    18]: 21112
      0.12849 [    19]: 21121
      0.11763 [    10]: 12121
      0.06917 [     7]: 11221
      0.06585 [     6]: 11212
      0.06336 [    21]: 21211
      0.06237 [    12]: 12211
      0.05712 [     2]: 02212
      0.05468 [    24]: 22021
      0.04879 [     9]: 12112
      0.04246 [    29]: 22210
      0.02891 [    16]: 20221
      0.02299 [    14]: 20122
      0.01636 [    26]: 22111
      0.01328 [    11]: 12202
      0.00915 [     8]: 12022
      0.00911 [    23]: 22012
      0.00780 [    13]: 12220
      0.00779 [     1]: 02122
      0.00767 [     5]: 11122
      0.00552 [     0]: 01222
ROOT  29:  E=   -6146.7543634420 Eh  2.967 eV  23927.4 cm**-1
      0.16759 [     9]: 12112
      0.10767 [    15]: 20212
      0.08494 [    13]: 12220
      0.08248 [     6]: 11212
      0.07451 [    23]: 22012
      0.06579 [    22]: 21220
      0.05097 [     8]: 12022
      0.04744 [    16]: 20221
      0.04692 [     3]: 02221
      0.04400 [    27]: 22120
      0.03718 [    18]: 21112
      0.03319 [    29]: 22210
      0.02688 [    14]: 20122
      0.02493 [    17]: 21022
      0.02489 [    26]: 22111
      0.02120 [    19]: 21121
      0.01849 [    21]: 21211
      0.01246 [    12]: 12211
      0.01214 [     5]: 11122
      0.00603 [     7]: 11221
      0.00282 [    10]: 12121
ROOT  30:  E=   -6146.7513424805 Eh  3.049 eV  24590.4 cm**-1
      0.10193 [    19]: 21121
      0.09764 [     5]: 11122
      0.08491 [    20]: 21202
      0.07748 [     8]: 12022
      0.07145 [     3]: 02221
      0.06869 [    28]: 22201
      0.06805 [    10]: 12121
      0.05962 [     9]: 12112
      0.05885 [    21]: 21211
      0.05254 [    11]: 12202
      0.03971 [    17]: 21022
      0.03868 [     7]: 11221
      0.02898 [    22]: 21220
      0.02771 [     0]: 01222
      0.02696 [    12]: 12211
      0.02595 [    26]: 22111
      0.01444 [     6]: 11212
      0.01385 [    27]: 22120
      0.00956 [    18]: 21112
      0.00848 [    16]: 20221
      0.00524 [    13]: 12220
      0.00472 [    14]: 20122
      0.00374 [    24]: 22021
      0.00287 [     1]: 02122
      0.00275 [    25]: 22102
      0.00260 [    15]: 20212
ROOT  31:  E=   -6146.7511703592 Eh  3.054 eV  24628.2 cm**-1
      0.12158 [     2]: 02212
      0.11517 [    19]: 21121
      0.10194 [    12]: 12211
      0.06006 [     6]: 11212
      0.05947 [     7]: 11221
      0.05946 [    17]: 21022
      0.05345 [    26]: 22111
      0.04635 [    22]: 21220
      0.04288 [    21]: 21211
      0.04265 [     5]: 11122
      0.03780 [    15]: 20212
      0.03554 [    18]: 21112
      0.03339 [    27]: 22120
      0.03204 [    23]: 22012
      0.02986 [     4]: 10222
      0.02394 [    10]: 12121
      0.02164 [     9]: 12112
      0.01994 [    11]: 12202
      0.01748 [    28]: 22201
      0.01383 [    20]: 21202
      0.00670 [     8]: 12022
      0.00670 [    14]: 20122
      0.00501 [     0]: 01222
      0.00442 [     3]: 02221
      0.00267 [     1]: 02122
ROOT  32:  E=   -6146.7502186676 Eh  3.079 eV  24837.0 cm**-1
      0.13454 [     6]: 11212
      0.11573 [    12]: 12211
      0.10701 [     7]: 11221
      0.06666 [    21]: 21211
      0.06512 [     9]: 12112
      0.05266 [    26]: 22111
      0.05058 [    23]: 22012
      0.04964 [    24]: 22021
      0.04772 [    19]: 21121
      0.03195 [    18]: 21112
      0.03177 [     0]: 01222
      0.03091 [    29]: 22210
      0.03026 [    10]: 12121
      0.02949 [     1]: 02122
      0.02104 [    14]: 20122
      0.02026 [     4]: 10222
      0.01968 [    17]: 21022
      0.01903 [     2]: 02212
      0.01653 [     3]: 02221
      0.01530 [     5]: 11122
      0.01398 [    25]: 22102
      0.01032 [    11]: 12202
      0.00949 [    16]: 20221
      0.00292 [    20]: 21202
      0.00289 [     8]: 12022
ROOT  33:  E=   -6146.7478505925 Eh  3.144 eV  25356.8 cm**-1
      0.14681 [     9]: 12112
      0.12407 [    18]: 21112
      0.12174 [    21]: 21211
      0.10523 [    11]: 12202
      0.08608 [     7]: 11221
      0.05896 [    19]: 21121
      0.05783 [     6]: 11212
      0.04683 [    13]: 12220
      0.03602 [     3]: 02221
      0.03527 [    27]: 22120
      0.03240 [    16]: 20221
      0.03177 [    26]: 22111
      0.02673 [    10]: 12121
      0.02394 [    14]: 20122
      0.01419 [     5]: 11122
      0.01381 [    12]: 12211
      0.01344 [    20]: 21202
      0.00905 [     0]: 01222
      0.00732 [     8]: 12022
      0.00434 [    25]: 22102
ROOT  34:  E=   -6146.7478498011 Eh  3.144 eV  25356.9 cm**-1
      0.18105 [    12]: 12211
      0.15926 [    25]: 22102
      0.06411 [    16]: 20221
      0.06272 [    22]: 21220
      0.06235 [    26]: 22111
      0.05122 [    14]: 20122
      0.04892 [     6]: 11212
      0.04749 [    18]: 21112
      0.03824 [     1]: 02122
      0.03646 [     4]: 10222
      0.03446 [     2]: 02212
      0.03265 [     5]: 11122
      0.02758 [     7]: 11221
      0.02235 [    10]: 12121
      0.02215 [     3]: 02221
      0.02158 [    21]: 21211
      0.01601 [    13]: 12220
      0.01415 [     9]: 12112
      0.01193 [     0]: 01222
      0.00987 [    23]: 22012
      0.00804 [    19]: 21121
      0.00763 [    15]: 20212
      0.00725 [    17]: 21022
      0.00608 [    24]: 22021
      0.00355 [    20]: 21202
      0.00261 [    11]: 12202
ROOT  35:  E=   -6146.6501158858 Eh  5.803 eV  46807.1 cm**-1
      0.12642 [    17]: 21022
      0.10054 [     1]: 02122
      0.08905 [    22]: 21220
      0.07806 [     0]: 01222
      0.07605 [     3]: 02221
      0.06858 [    20]: 21202
      0.06417 [    24]: 22021
      0.05307 [    14]: 20122
      0.05292 [    25]: 22102
      0.05047 [    27]: 22120
      0.04249 [    16]: 20221
      0.04212 [     7]: 11221
      0.02721 [    23]: 22012
      0.01565 [    10]: 12121
      0.01459 [    19]: 21121
      0.01453 [     2]: 02212
      0.01418 [    12]: 12211
      0.01146 [    18]: 21112
      0.00987 [    26]: 22111
      0.00944 [    28]: 22201
      0.00870 [     5]: 11122
      0.00770 [    11]: 12202
      0.00585 [     9]: 12112
      0.00528 [    21]: 21211
      0.00381 [     6]: 11212
ROOT  36:  E=   -6146.6471992905 Eh  5.883 eV  47447.2 cm**-1
      0.14345 [    16]: 20221
      0.13969 [    14]: 20122
      0.10599 [    25]: 22102
      0.06672 [    24]: 22021
      0.06584 [     1]: 02122
      0.06283 [     4]: 10222
      0.06025 [     3]: 02221
      0.05860 [    11]: 12202
      0.03692 [    27]: 22120
      0.03582 [     8]: 12022
      0.03465 [     2]: 02212
      0.02087 [     9]: 12112
      0.02064 [    28]: 22201
      0.02049 [    13]: 12220
      0.02023 [    12]: 12211
      0.01808 [    18]: 21112
      0.01605 [     5]: 11122
      0.01502 [    10]: 12121
      0.01067 [     6]: 11212
      0.00957 [    23]: 22012
      0.00748 [    15]: 20212
      0.00645 [    26]: 22111
      0.00576 [    21]: 21211
      0.00538 [    17]: 21022
      0.00428 [    20]: 21202
      0.00313 [     0]: 01222
ROOT  37:  E=   -6146.6460527321 Eh  5.914 eV  47698.8 cm**-1
      0.17360 [    13]: 12220
      0.10088 [    22]: 21220
      0.09840 [    11]: 12202
      0.07862 [     8]: 12022
      0.06521 [    27]: 22120
      0.05985 [    17]: 21022
      0.05773 [    23]: 22012
      0.05468 [     4]: 10222
      0.04184 [     2]: 02212
      0.04056 [    25]: 22102
      0.03619 [     1]: 02122
      0.02829 [    20]: 21202
      0.02494 [    26]: 22111
      0.02152 [     9]: 12112
      0.02033 [    10]: 12121
      0.01960 [    18]: 21112
      0.01377 [    15]: 20212
      0.01353 [    21]: 21211
      0.01339 [     0]: 01222
      0.01105 [    14]: 20122
      0.01088 [     6]: 11212
      0.00303 [    12]: 12211
      0.00255 [     3]: 02221
ROOT  38:  E=   -6146.6330594936 Eh  6.267 eV  50550.5 cm**-1
      0.22518 [     2]: 02212
      0.20308 [    15]: 20212
      0.13273 [    29]: 22210
      0.10851 [    23]: 22012
      0.04662 [    21]: 21211
      0.03598 [     6]: 11212
      0.03467 [    22]: 21220
      0.03264 [    14]: 20122
      0.03106 [    12]: 12211
      0.02485 [    13]: 12220
      0.02404 [    27]: 22120
      0.02276 [    16]: 20221
      0.02093 [     0]: 01222
      0.01111 [    18]: 21112
      0.00929 [    10]: 12121
      0.00920 [    25]: 22102
      0.00802 [    20]: 21202
      0.00417 [     7]: 11221
      0.00413 [    19]: 21121
      0.00252 [    11]: 12202
ROOT  39:  E=   -6146.6324800665 Eh  6.283 eV  50677.7 cm**-1
      0.17894 [    11]: 12202
      0.15521 [    20]: 21202
      0.14058 [    28]: 22201
      0.09038 [     3]: 02221
      0.06983 [    16]: 20221
      0.04411 [    24]: 22021
      0.03223 [     8]: 12022
      0.03002 [    17]: 21022
      0.02853 [    22]: 21220
      0.02743 [     0]: 01222
      0.02434 [    25]: 22102
      0.02129 [     4]: 10222
      0.02021 [    18]: 21112
      0.01860 [    19]: 21121
      0.01798 [     9]: 12112
      0.01727 [    10]: 12121
      0.01647 [    13]: 12220
      0.01515 [     7]: 11221
      0.01214 [    21]: 21211
      0.01045 [    26]: 22111
      0.00830 [     1]: 02122
      0.00561 [    15]: 20212
      0.00495 [     6]: 11212
      0.00351 [    12]: 12211
      0.00297 [     5]: 11122

                 <<<<<<<<<<<<<<<<<<INITIAL CI STATE CHECK>>>>>>>>>>>>>>>>>>

   E(CAS)= -6146.858286322 Eh DE=    0.000000e+00
   --- Energy gap subspaces: Ext-Act = 1.589   Act-Int = 0.096
   --- current l-shift: Up(Ext-Act) = 1.00   Dn(Act-Int) = 1.90
   N(occ)=  1.40000 1.40000 1.40000 1.40000 1.40000
   ||g|| =     5.223958e-05 Max(G)=    1.532137e-05 Rot=91,44
   --- Orbital Update [   SuperCI]
   SUPERCI-ITER   0: DE=    -0.000000000 <r|r>=      0.000000000
   <Psi(SX)|Psi(SX)>=      1.000000000 DE(SX)=-0.000000000
   Largest coefficient in the normalized |SX> wavefunction= 0.000003560
   --- Forming Natural Orbitals

MACRO-ITERATION   2: 
   ===>>> Convergence to 3.0e-02 achieved - switching to Step=DIIS
   --- Inactive Energy E0 = -6121.66846959 Eh
CI-ITERATION   0: 
 -6146.947133794   0.000000000000 (    0.00)
 -6146.946552721   0.000000000000
 -6146.940913313   0.000000000000
 -6146.940774988   0.000000000000
 -6146.939713943   0.000000000000
 -6146.939262641   0.000000000000
 -6146.936449010   0.000000000000
 -6146.867097315   0.000000000000
 -6146.858700369   0.000000000000
 -6146.853765707   0.000000000000
   CI-PROBLEM SOLVED
   DENSITIES MADE
CI-ITERATION   0: 
 -6146.863384544   0.000000000000 (    0.01)
 -6146.863123597   0.000000000000
 -6146.863079623   0.000000000000
 -6146.862472850   0.000000000000
 -6146.862189955   0.000000000000
 -6146.860038225   0.000000000000
[...]
 3 106   43978.7    227.4   0.00000   0.00050   0.00000   0.00000000007395   0.43636   0.56328   0.00036
 3 107   43978.7    227.4   0.00000   0.00006   0.00000   0.00000000012832   0.96203   0.03789   0.00008
 3 108   44233.8    226.1   0.00000   0.00001   0.00000   0.00000000013957   0.99455   0.00507   0.00038
 3 109   44233.8    226.1   0.00000   0.00006   0.00000   0.00000000069015   0.99284   0.00714   0.00002
 3 110   65528.5    152.6   0.00000   0.00000   0.00000   0.00000000039636   0.99914   0.00079   0.00007
 3 111   65528.5    152.6   0.00000   0.00001   0.00000   0.00000000006883   0.98855   0.01128   0.00018
 3 112   66161.5    151.1   0.00000   0.00000   0.00000   0.00000000037337   0.99918   0.00062   0.00020
 3 113   66161.5    151.1   0.00000   0.00003   0.00000   0.00000000012604   0.97956   0.02028   0.00015
 3 114   66502.7    150.4   0.00000   0.00000   0.00000   0.00000000007644   0.99724   0.00019   0.00257
 3 115   66502.7    150.4   0.00000   0.00000   0.00000   0.00000000078739   0.99971   0.00001   0.00028
 3 116   69142.4    144.6   0.00000   0.00000   0.00000   0.00000000044902   0.99935   0.00004   0.00061
 3 117   69142.4    144.6   0.00000   0.00000   0.00000   0.00000000139693   0.99975   0.00007   0.00018
 3 118   69582.1    143.7   0.00000   0.00000   0.00000   0.00000000031589   0.99884   0.00101   0.00015
 3 119   69582.1    143.7   0.00000   0.00003   0.00000   0.00000000005788   0.94865   0.05021   0.00113

Done

                 =============================
                 AB INITIO LIGAND FIELD THEORY
                       d7 configuration
                          2 CI blocks
                         MOs 69 to 73
                 =============================

Metal/Atom center is atom 0
orbital phases =   1.0   1.0   1.0   1.0   1.0 
Metal/Atom d-orbital parts of active orbitals
Shell 15
             69        70        71        72        73
dz2     :  0.611926  0.000040  0.000071 -0.000740  0.000005
dxz     :  0.000201  0.612611 -0.000006  0.000001 -0.000673
dyz     : -0.000948 -0.000021  0.615056 -0.000104 -0.000042
dx2y2   :  0.010845  0.000179  0.001347  0.607124  0.000012
dxy     : -0.000324  0.004538 -0.000214  0.000311  0.610049
Shell 16
             69        70        71        72        73
dz2     :  0.408758 -0.000063  0.000138  0.001033  0.000016
dxz     :  0.000033  0.407188  0.000022 -0.000008  0.000141
dyz     : -0.000582  0.000018  0.411645 -0.000157  0.000073
dx2y2   :  0.008703  0.000117  0.000750  0.403562 -0.000053
dxy     : -0.000195  0.003600 -0.000019  0.000151  0.404730
Shell 17
             69        70        71        72        73
dz2     :  0.217895  0.000205 -0.000607 -0.001907 -0.000077
dxz     :  0.000269  0.222263 -0.000051  0.000028  0.000657
dyz     : -0.000816 -0.000093  0.218516  0.000725 -0.000211
dx2y2   :  0.002445  0.000074  0.001491  0.219621  0.000179
dxy     : -0.000227  0.002551 -0.000339  0.000249  0.220091
Shell 20
             69        70        71        72        73
dz2     :  0.006553 -0.001784 -0.000929  0.007276  0.000365
dxz     : -0.000456  0.011669  0.000298  0.002435 -0.001083
dyz     :  0.000067  0.000367  0.011514 -0.000060  0.001538
dx2y2   :  0.008756 -0.000367  0.001720 -0.001618 -0.000579
dxy     :  0.001507 -0.000823 -0.001253 -0.003743  0.013275

Adjusting phases of one-electron integrals               ... done
Adjusting phases of two-electron integrals               ... done


-----------------------------------------------------------------
Computing F0s from 2-electron integrals                  ... done 
-----------------------------------------------------------------
F0   =  0.891564505 a.u. =    24.261 eV =  195675.8 cm**-1
-----------------------------------------------------------------

Preparing for fit                                        ... done
Making fit matrices                                      ... done
Calculating ab initio Hamiltonian matrices               ... 
Calculating fit matrices                                 ... done
Fitting                                                  ... done

------------------------------
AILFT MATRIX ELEMENTS (CASSCF)
--------------------------------

Ligand field one-electron matrix VLFT (a.u.) : 
Orbital          dz2        dxz        dyz        dx2-y2     dxy
  dz2         -6.210635   0.000125   0.000327  -0.006248   0.000101 
  dxz          0.000125  -6.207700  -0.000029  -0.000044  -0.004112 
  dyz          0.000327  -0.000029  -6.214271  -0.000446  -0.000150 
  dx2-y2      -0.006248  -0.000044  -0.000446  -6.203890  -0.000016 
  dxy          0.000101  -0.004112  -0.000150  -0.000016  -6.202287 

-------------------------------------------------
Slater-Condon Parameters (electronic repulsion) : 
-------------------------------------------------
F0dd(from 2el Ints)     =  0.891564505 a.u. =    24.261 eV =  195675.8 cm**-1 (fixed)
F2dd                    =  0.404591146 a.u. =    11.009 eV =   88797.5 cm**-1
F4dd                    =  0.253598592 a.u. =     6.901 eV =   55658.5 cm**-1
-------------------
Racah Parameters : 
-------------------
A(F0dd from 2el Ints)   =  0.863386884 a.u. =    23.494 eV =  189491.5 cm**-1
B                       =  0.005381695 a.u. =     0.146 eV =    1181.1 cm**-1
C                       =  0.020126872 a.u. =     0.548 eV =    4417.3 cm**-1
C/B                     =  3.740
-------------------------------------------------------------------------------

-----------------------------------------
The ligand field one electron eigenfunctions:
-----------------------------------------
Orbital    Energy (eV)  Energy(cm-1)      dz2        dxz        dyz        dx2-y2     dxy
    1          0.000        0.0        -0.763808   0.026103   0.476688  -0.433890   0.020596 
    2          0.004       28.5        -0.392520  -0.004149  -0.877866  -0.274176  -0.009492 
    3          0.122      983.9        -0.015684  -0.879888   0.023251  -0.022272  -0.473829 
    4          0.388     3128.8         0.511035   0.039820   0.039297  -0.856355  -0.048680 
    5          0.390     3144.2         0.033507  -0.472771  -0.005940  -0.052227   0.878978 
Ligand field orbitals were stored in rho.casscf.lft.gbw

Calculating ligand field Hamiltonian matrices          ... done
Diagonalizing and fitting the ligand field Hamiltonian ... done
Calculating statistical parameters                     ... done

Reference energy AI-LFT =    -25.279554686 au
Reference energy AI     =    -25.278660980 au

------------------------------------------------
COMPARISON OF AB INITIO AND LIGAND FIELD RESULTS
------------------------------------------------

Block   1
---------
   AI-Root   0: E(AI)=    0.000 eV -> LF-Root   0:     0.000 eV    S= 0.998 Delta=    0.000 eV
   AI-Root   1: E(AI)=    0.016 eV -> LF-Root   1:     0.021 eV    S= 0.999 Delta=   -0.005 eV
   AI-Root   2: E(AI)=    0.169 eV -> LF-Root   2:     0.202 eV    S= 0.746 Delta=   -0.032 eV
   AI-Root   3: E(AI)=    0.173 eV -> LF-Root   3:     0.214 eV    S= 0.982 Delta=   -0.041 eV
   AI-Root   4: E(AI)=    0.202 eV -> LF-Root   4:     0.218 eV    S= 0.729 Delta=   -0.016 eV
   AI-Root   5: E(AI)=    0.214 eV -> LF-Root   5:     0.242 eV    S= 0.969 Delta=   -0.028 eV
   AI-Root   6: E(AI)=    0.291 eV -> LF-Root   6:     0.328 eV    S= 0.999 Delta=   -0.037 eV
   AI-Root   7: E(AI)=    2.178 eV -> LF-Root   7:     2.146 eV    S= 1.000 Delta=    0.032 eV
   AI-Root   8: E(AI)=    2.406 eV -> LF-Root   8:     2.447 eV    S= 1.000 Delta=   -0.040 eV
   AI-Root   9: E(AI)=    2.541 eV -> LF-Root   9:     2.608 eV    S= 1.000 Delta=   -0.067 eV
   (Dropping RMS error for the reference energy)
   RMS error for this block =     0.037 eV =     298.3 cm**-1 

Block   2
---------
   AI-Root   0: E(AI)=    2.279 eV -> LF-Root   0:     2.318 eV    S= 0.835 Delta=   -0.039 eV
   AI-Root   1: E(AI)=    2.286 eV -> LF-Root   1:     2.300 eV    S= 0.915 Delta=   -0.014 eV
   AI-Root   2: E(AI)=    2.287 eV -> LF-Root   2:     2.317 eV    S= 0.784 Delta=   -0.030 eV
   AI-Root   3: E(AI)=    2.304 eV -> LF-Root   3:     2.348 eV    S= 0.998 Delta=   -0.044 eV
   AI-Root   4: E(AI)=    2.311 eV -> LF-Root   4:     2.354 eV    S= 0.970 Delta=   -0.043 eV
   AI-Root   5: E(AI)=    2.370 eV -> LF-Root   5:     2.400 eV    S= 0.998 Delta=   -0.030 eV
   AI-Root   6: E(AI)=    2.377 eV -> LF-Root   6:     2.405 eV    S= 0.995 Delta=   -0.027 eV
   AI-Root   7: E(AI)=    2.460 eV -> LF-Root   7:     2.477 eV    S= 0.998 Delta=   -0.016 eV
   AI-Root   8: E(AI)=    2.465 eV -> LF-Root   8:     2.481 eV    S= 0.998 Delta=   -0.017 eV
   AI-Root   9: E(AI)=    2.905 eV -> LF-Root   9:     2.936 eV    S= 0.971 Delta=   -0.031 eV
   AI-Root  10: E(AI)=    2.908 eV -> LF-Root  10:     2.928 eV    S= 0.966 Delta=   -0.020 eV
   AI-Root  11: E(AI)=    2.917 eV -> LF-Root  11:     2.947 eV    S= 0.996 Delta=   -0.030 eV
   AI-Root  12: E(AI)=    2.996 eV -> LF-Root  12:     3.015 eV    S= 0.979 Delta=   -0.018 eV
   AI-Root  13: E(AI)=    3.002 eV -> LF-Root  13:     3.036 eV    S= 0.922 Delta=   -0.034 eV
   AI-Root  14: E(AI)=    3.030 eV -> LF-Root  14:     3.042 eV    S= 0.937 Delta=   -0.012 eV
   AI-Root  15: E(AI)=    3.037 eV -> LF-Root  15:     3.052 eV    S= 0.993 Delta=   -0.015 eV
   AI-Root  16: E(AI)=    3.152 eV -> LF-Root  16:     3.157 eV    S= 0.997 Delta=   -0.005 eV
   AI-Root  17: E(AI)=    3.168 eV -> LF-Root  17:     3.177 eV    S= 0.996 Delta=   -0.009 eV
   AI-Root  18: E(AI)=    3.174 eV -> LF-Root  18:     3.205 eV    S= 0.953 Delta=   -0.030 eV
   AI-Root  19: E(AI)=    3.193 eV -> LF-Root  19:     3.226 eV    S= 0.985 Delta=   -0.033 eV
   AI-Root  20: E(AI)=    3.223 eV -> LF-Root  20:     3.237 eV    S= 0.953 Delta=   -0.014 eV
   AI-Root  21: E(AI)=    3.320 eV -> LF-Root  21:     3.344 eV    S= 0.993 Delta=   -0.024 eV
   AI-Root  22: E(AI)=    3.338 eV -> LF-Root  22:     3.360 eV    S= 0.995 Delta=   -0.023 eV
   AI-Root  23: E(AI)=    3.398 eV -> LF-Root  23:     3.442 eV    S= 1.000 Delta=   -0.043 eV
   AI-Root  24: E(AI)=    3.398 eV -> LF-Root  24:     3.442 eV    S= 1.000 Delta=   -0.043 eV
   AI-Root  25: E(AI)=    3.473 eV -> LF-Root  25:     3.487 eV    S= 0.996 Delta=   -0.014 eV
   AI-Root  26: E(AI)=    3.487 eV -> LF-Root  26:     3.534 eV    S= 0.999 Delta=   -0.048 eV
   AI-Root  27: E(AI)=    3.515 eV -> LF-Root  27:     3.509 eV    S= 0.998 Delta=    0.006 eV
   AI-Root  28: E(AI)=    5.225 eV -> LF-Root  28:     5.267 eV    S= 1.000 Delta=   -0.042 eV
   AI-Root  29: E(AI)=    5.246 eV -> LF-Root  29:     5.269 eV    S= 1.000 Delta=   -0.023 eV
   AI-Root  30: E(AI)=    5.328 eV -> LF-Root  30:     5.354 eV    S= 0.826 Delta=   -0.027 eV
   AI-Root  31: E(AI)=    5.332 eV -> LF-Root  31:     5.355 eV    S= 0.826 Delta=   -0.023 eV
   AI-Root  32: E(AI)=    5.358 eV -> LF-Root  32:     5.386 eV    S= 1.000 Delta=   -0.027 eV
   AI-Root  33: E(AI)=    5.423 eV -> LF-Root  33:     5.451 eV    S= 0.732 Delta=   -0.029 eV
   AI-Root  34: E(AI)=    5.423 eV -> LF-Root  34:     5.451 eV    S= 0.732 Delta=   -0.029 eV
   AI-Root  35: E(AI)=    8.082 eV -> LF-Root  35:     8.084 eV    S= 0.999 Delta=   -0.002 eV
   AI-Root  36: E(AI)=    8.162 eV -> LF-Root  36:     8.165 eV    S= 1.000 Delta=   -0.004 eV
   AI-Root  37: E(AI)=    8.193 eV -> LF-Root  37:     8.254 eV    S= 1.000 Delta=   -0.061 eV
   AI-Root  38: E(AI)=    8.546 eV -> LF-Root  38:     8.556 eV    S= 0.999 Delta=   -0.010 eV
   AI-Root  39: E(AI)=    8.562 eV -> LF-Root  39:     8.566 eV    S= 0.999 Delta=   -0.004 eV
   RMS error for this block =     0.028 eV =     228.6 cm**-1 

Total RMS error g=     0.030 eV =     242.9 cm**-1
Note: Dropped RMS error for the reference energy.

Confidence intervals (95%) computed from the square root of the
diagonal elements of the covariance matrix:
H(dz2   ,dz2   )=  0.000141969 a.u. =     0.004 eV =      31.2 cm**-1
H(dxz   ,dz2   )=  0.000120107 a.u. =     0.003 eV =      26.4 cm**-1
H(dxz   ,dxz   )=  0.000141969 a.u. =     0.004 eV =      31.2 cm**-1
H(dyz   ,dz2   )=  0.000120107 a.u. =     0.003 eV =      26.4 cm**-1
H(dyz   ,dxz   )=  0.000120107 a.u. =     0.003 eV =      26.4 cm**-1
H(dyz   ,dyz   )=  0.000141969 a.u. =     0.004 eV =      31.2 cm**-1
H(dx2-y2,dz2   )=  0.000120107 a.u. =     0.003 eV =      26.4 cm**-1
H(dx2-y2,dxz   )=  0.000120107 a.u. =     0.003 eV =      26.4 cm**-1
H(dx2-y2,dyz   )=  0.000120107 a.u. =     0.003 eV =      26.4 cm**-1
H(dx2-y2,dx2-y2)=  0.000141969 a.u. =     0.004 eV =      31.2 cm**-1
H(dxy   ,dz2   )=  0.000120107 a.u. =     0.003 eV =      26.4 cm**-1
H(dxy   ,dxz   )=  0.000120107 a.u. =     0.003 eV =      26.4 cm**-1
H(dxy   ,dyz   )=  0.000120107 a.u. =     0.003 eV =      26.4 cm**-1
H(dxy   ,dx2-y2)=  0.000120107 a.u. =     0.003 eV =      26.4 cm**-1
H(dxy   ,dxy   )=  0.000141969 a.u. =     0.004 eV =      31.2 cm**-1
F2dd            =  0.000509835 a.u. =     0.014 eV =     111.9 cm**-1
F4dd            =  0.000739442 a.u. =     0.020 eV =     162.3 cm**-1
Pearson's correlation coefficient =    1.000 (should be close to 1)

----------------------------------------------
SPIN ORBIT COUPLING (based on CASSCF orbitals)
----------------------------------------------

AI-SOC-X integrals (cm-1)
                  0          1          2          3          4    
      0       0.000000   0.320936 898.456425   0.912319   0.080798
      1      -0.320936  -0.000000  -0.086964   0.171741 508.378642
      2     -898.456425   0.086964  -0.000000 -508.560840   0.084433
      3      -0.912319  -0.171741 508.560840   0.000000   0.032847
      4      -0.080798 -508.378642  -0.084433  -0.032847  -0.000000
AI-SOC-Y integrals (cm-1)
                  0          1          2          3          4    
      0      -0.000000 -874.644473  -0.287904   0.083524   0.631610
      1     874.644473   0.000000   2.260605 -505.112587   0.132692
      2       0.287904  -2.260605  -0.000000  -0.254530 -512.226021
      3      -0.083524 505.112587   0.254530  -0.000000   1.348130
      4      -0.631610  -0.132692 512.226021  -1.348130   0.000000
AI-SOC-Z integrals (cm-1)
                  0          1          2          3          4    
      0       0.000000   0.183617   0.016270  -0.534930 -21.889678
      1      -0.183617   0.000000 -514.311101   9.366176  -0.420811
      2      -0.016270 514.311101  -0.000000  -0.077217  -3.507004
      3       0.534930  -9.366176   0.077217   0.000000 -1005.030555
      4      21.889678   0.420811   3.507004 1005.030555  -0.000000

Fit to the SOC matrix elements
a = 15.000000
b =     0.946 eV =    7629.8 cm**-1
SOC constant zeta =     0.063 eV =     508.7 cm**-1


LF-SOC-X integrals (cm-1)
                  0          1          2          3          4    
      0       0.000000  -0.000000 881.007775  -0.000000  -0.000000
      1       0.000000   0.000000  -0.000000  -0.000000 508.650076
      2     -881.007775   0.000000   0.000000 -508.650076  -0.000000
      3       0.000000   0.000000 508.650076   0.000000  -0.000000
      4       0.000000 -508.650076   0.000000   0.000000   0.000000
LF-SOC-Y integrals (cm-1)
                  0          1          2          3          4    
      0       0.000000 -881.007775  -0.000000  -0.000000  -0.000000
      1     881.007775   0.000000  -0.000000 -508.650076  -0.000000
      2       0.000000   0.000000   0.000000  -0.000000 -508.650076
      3       0.000000 508.650076   0.000000   0.000000  -0.000000
      4       0.000000   0.000000 508.650076   0.000000   0.000000
LF-SOC-Z integrals (cm-1)
                  0          1          2          3          4    
      0       0.000000  -0.000000  -0.000000  -0.000000  -0.000000
      1       0.000000   0.000000 -508.650076  -0.000000  -0.000000
      2       0.000000 508.650076   0.000000  -0.000000  -0.000000
      3       0.000000   0.000000   0.000000   0.000000 -1017.300152
      4       0.000000   0.000000   0.000000 1017.300152   0.000000

RMS error of nonzero matrix elements =    7.0 cm**-1


-----SOC-CONSTANTS-----
---All Values in cm-1---
ZETA_D = 508.65 
------------------------




---AILFT COMPLETED SUCCESFULLY!---

--------------
CASSCF TIMINGS
--------------

Total time                       ...      100.0 sec
Sum of individual times          ...      119.6 sec (119.5%)

Calculation of AO operators
   F(Core) operator              ...       16.6 sec ( 16.6%)
   G(Act) operator               ...       14.6 sec ( 14.6%)
   J(AO) operators               ...        0.0 sec (  0.0%)
Calculation of MO transformed quantities
   J(MO) operators               ...        4.4 sec (  4.4%)
   (pq|rs) integrals             ...        0.0 sec (  0.0%)
   AO->MO one electron integrals ...        0.4 sec (  0.4%)
Configuration interaction steps
   CI-setup phase                ...        0.0 sec (  0.0%)
   CI-solution phase             ...        0.3 sec (  0.3%)
   Generation of densities       ...        0.0 sec (  0.0%)
Orbital improvement steps
   Orbital gradient              ...        0.1 sec (  0.1%)
   O(1) converger                ...        0.6 sec (  0.6%)
Properties                       ...       45.7 sec ( 45.6%)
   SOC integral calculation      ...       36.8 sec ( 36.8%)
   SSC RMEs (incl. integrals)    ...        0.0 sec (  0.0%)
   SOC RMEs                      ...        0.2 sec (  0.2%)

Maximum memory used throughout the entire CASSCF-calculation: 742.5 MB

-------------------------   --------------------
FINAL SINGLE POINT ENERGY     -6146.858286325590
-------------------------   --------------------


                            ***************************************
                            *     ORCA property calculations      *
                            ***************************************

                                    ---------------------
                                    Active property flags
                                    ---------------------
   (+) Dipole Moment


------------------------------------------------------------------------------
                       ORCA ELECTRIC PROPERTIES CALCULATION
------------------------------------------------------------------------------

Dipole Moment Calculation                       ... on
Quadrupole Moment Calculation                   ... off
Polarizability Calculation                      ... off
GBWName                                         ... rho.gbw
Electron density                                ... rho.scfp
The origin for moment calculation is the CENTER OF MASS  = (-0.000948,  0.537620 -0.290729)

-------------
DIPOLE MOMENT
-------------
                                X             Y             Z
Electronic contribution:     -0.00951       8.14097      -4.40183
Nuclear contribution   :      0.02091      -7.79665       4.21604
                        -----------------------------------------
Total Dipole Moment    :      0.01141       0.34432      -0.18579
                        -----------------------------------------
Magnitude (a.u.)       :      0.39141
Magnitude (Debye)      :      0.99489



--------------------
Rotational spectrum 
--------------------
 
Rotational constants in cm-1:     0.046790     0.009620     0.009464 
Rotational constants in MHz :  1402.741393   288.400124   283.730311 

 Dipole components along the rotational axes: 
x,y,z [a.u.] :     0.012169     0.391222     0.000555 
x,y,z [Debye]:     0.030932     0.994408     0.001411 

 

Timings for individual modules:

Sum of individual times         ...      122.507 sec (=   2.042 min)
GTO integral calculation        ...        6.609 sec (=   0.110 min)   5.4 %
Relativistic integrals          ...        3.896 sec (=   0.065 min)   3.2 %
SCF iterations                  ...        5.348 sec (=   0.089 min)   4.4 %
CASSCF iterations               ...      106.654 sec (=   1.778 min)  87.1 %
                             ****ORCA TERMINATED NORMALLY****
TOTAL RUN TIME: 0 days 0 hours 2 minutes 8 seconds 647 msec
